SystemName     aiida                                                                           
SystemLabel     aiida                                                                           
MPI.Nprocs.SIESTA        24     # default value
SpinPolarized              F
NonCollinearSpin              F
SpinOrbit              F
#:defined? SpinPolarized              T
#**Warning: FDF symbol 'SpinPolarized' is deprecated.
#:block? Spin              F
#:defined? Spin              F
#           FDF symbol 'Spin' replaces 'SpinPolarized'.
#:defined? NonCollinearSpin              T
#**Warning: FDF symbol 'NonCollinearSpin' is deprecated.
#:block? Spin              F
#:defined? Spin              F
#           FDF symbol 'Spin' replaces 'NonCollinearSpin'.
#:defined? SpinOrbit              T
#**Warning: FDF symbol 'SpinOrbit' is deprecated.
#:block? Spin              F
#:defined? Spin              F
#           FDF symbol 'Spin' replaces 'SpinOrbit'.
Spin     none                                 # default value
TimeReversalSymmetry              T     # default value
DebugObjects.Node         0     # default value
DebugObjects              F     # default value
XML.Write              T
timer_report_threshold          0.000000000         # default value
UseParallelTimer              T     # default value
UseTreeTimer              T
timing-split-scf-steps              F     # default value
use-walltime              T     # default value
alloc_report_level         0     # default value
alloc_report_threshold          0.000000000         # default value
xc.functional     GGA                                                                             
xc.authors     PBEsol                                                                          
#:block? XC.hybrid              F
#:defined? XC.hybrid              F
#:block? XC.cocktail              F
#:defined? XC.cocktail              F
MM.Cutoff          30.00000000     Bohr     # default value
MM.UnitsEnergy     eV     # default value
MM.UnitsDistance     Ang     # default value
Atom.Debug              F     # default value
WriteIonPlotFiles              F     # default value
Atom.Debug.KB.Generation              F     # default value
KB.New.Reference.Orbitals              F     # default value
user-basis              F     # default value
user-basis-netcdf              F     # default value
#:block? DFTU.proj              F
#:defined? DFTU.proj              F
#:block? LDAU.proj              F
#:defined? LDAU.proj              F
Number_of_species              2
%block Chemical_species_label
     1     5      B
     2     7      N
%endblock Chemical_species_label
ReparametrizePseudos              T     # default value
NewAParameter         0.1000000000E-02     # default value
NewBParameter         0.1000000000E-01     # default value
NewGridRmax          0.000000000         # default value
Restricted.Radial.Grid              T     # default value
Rmax.Radial.Grid          50.00000000         # default value
PAO.BasisSize     DZP                                                                             
PAO.BasisType     split          # default value
PAO.SoftDefault              T     # default value
PAO.SoftInnerRadius         0.9000000000         # default value
PAO.SoftPotential          40.00000000         # default value
PAO.SplitNorm         0.1500000000    
PAO.SplitNormH         -1.000000000         # default value
PAO.Polarization.NonPerturbative              F     # default value
PAO.NonPerturbative.Polarization.Orbitals              F     # default value
PAO.Polarization.NonPerturbative.Fallback              T     # default value
LDAU.ProjectorGenerationMethod         2     # default value
DFTU.ProjectorGenerationMethod         2     # default value
LDAU.EnergyShift         0.5000000000E-01 Ry     # default value
DFTU.EnergyShift         0.5000000000E-01 Ry     # default value
LDAU.CutoffNorm         0.9000000000         # default value
DFTU.CutoffNorm         0.9000000000         # default value
PAO.SoftDefault              T     # default value
PAO.SoftInnerRadius         0.9000000000         # default value
PAO.SoftPotential          40.00000000         # default value
LDAU.ThresholdTol         0.1000000000E-01     # default value
DFTU.ThresholdTol         0.1000000000E-01     # default value
LDAU.PopTol         0.1000000000E-02     # default value
DFTU.PopTol         0.1000000000E-02     # default value
LDAU.PotentialShift              F     # default value
DFTU.PotentialShift              F     # default value
LDAU.FirstIteration              F     # default value
DFTU.FirstIteration              F     # default value
FilterCutoff          0.000000000     Ry     # default value
FilterTol          0.000000000     Ry     # default value
PAO.SplitValence.Legacy              F     # default value
PAO.SplitTailNorm              T     # default value
spin-orbit-strength          1.000000000         # default value
Use.PSML.KB.Projectors              T     # default value
Use.PSML.Vlocal              T     # default value
PSML.KB.Projectors              T     # default value
PSML.Vlocal              T     # default value
psml.chlocal.build.r0         0.4000000000E-02     # default value
psml.chlocal.build.delta         0.5000000000E-02     # default value
psml.chlocal.build.poly_order_rlin         4     # default value
chlocal-use-charge-cutoff-for-vlocal-fit              F     # default value
psml.chlocal.build.rr1         0.1000000000E-02     # default value
psml.chlocal.build.exp_al          1.012000000         # default value
psml.chlocal.build.poly_order_rofi         7     # default value
PAO.EnergyShift         0.5000000000E-02         Ry
# above item originally: PAO.EnergyShift         0.5000000000E-02 Ry        
PAO.Filter              F     # default value
PAO.Filter              F     # default value
PAO.Filter              F     # default value
PAO.Filter              F     # default value
PAO.OldStylePolorbs              F     # default value
PAO.Filter              F     # default value
Vna.Filter              F     # default value
PCC.Filter              F     # default value
FilterCutoff          0.000000000     Ry     # default value
FilterTol          0.000000000     Ry     # default value
PAO.SplitValence.Legacy              F     # default value
PAO.SplitTailNorm              T     # default value
spin-orbit-strength          1.000000000         # default value
Use.PSML.KB.Projectors              T     # default value
Use.PSML.Vlocal              T     # default value
PSML.KB.Projectors              T     # default value
PSML.Vlocal              T     # default value
psml.chlocal.build.r0         0.4000000000E-02     # default value
psml.chlocal.build.delta         0.5000000000E-02     # default value
psml.chlocal.build.poly_order_rlin         4     # default value
chlocal-use-charge-cutoff-for-vlocal-fit              F     # default value
psml.chlocal.build.rr1         0.1000000000E-02     # default value
psml.chlocal.build.exp_al          1.012000000         # default value
psml.chlocal.build.poly_order_rofi         7     # default value
PAO.EnergyShift         0.5000000000E-02         Ry
# above item originally: PAO.EnergyShift         0.5000000000E-02 Ry        
PAO.Filter              F     # default value
PAO.Filter              F     # default value
PAO.Filter              F     # default value
PAO.Filter              F     # default value
PAO.OldStylePolorbs              F     # default value
PAO.Filter              F     # default value
Vna.Filter              F     # default value
PCC.Filter              F     # default value
PAO.BasisType     split          # default value
Debug.Elec.Corr              F     # default value
Atom-Setup-Only              F     # default value
UseStructFile              F     # default value
MD.UseStructFile              F     # default value
#:block? LatticeParameters              F
%block LatticeVectors
LatticeConstant          1.889726125           Bohr
# above item originally: LatticeConstant          1.000000000     Ang       
       9.1605600000       0.0000000000       0.0000000000
       0.0000000000       9.1605600000       0.0000000000
       0.0000000000       0.0000000000       9.1605600000
%endblock LatticeVectors
AtomicCoordinatesFormat     Ang                                                                             
NumberOfAtoms             64
#:block? AtomicCoordinatesOrigin              F
#:defined? AtomicCoordinatesOrigin              F
ZM.UnitsLength     Bohr           # default value
ZM.UnitsAngle     rad            # default value
ZM.ForceTolLength         0.1555740000E-02 Ry/Bohr     # default value
ZM.ForceTolAngle         0.3565490000E-02 Ry/rad     # default value
ZM.MaxDisplLength         0.2000000000     Bohr     # default value
ZM.MaxDisplAngle         0.3000000000E-02 rad     # default value
ZM.CalcAllForces              F     # default value
%block AtomicCoordinatesAndAtomicSpecies
       4.8720438360       5.0317123968       0.1334693592    1      B      1
       5.5078783056       5.4685795032       5.3882413920    1      B      2
       3.7528066152       7.4092441392       5.1297303888    1      B      3
       2.5446203568       5.0717440440       4.1071370760    1      B      4
       3.1013991936       7.9243424280       8.9047971648    1      B      5
       0.3967438536       5.2708946184       8.1784563624    1      B      6
       8.4990759624       3.7133246016       0.8459777160    1      B      7
       3.4341107328       6.1005665376       7.1187627816    1      B      8
       4.4767656720       7.4648487384       2.3727682512    1      B      9
       5.2116257952       2.4635494008       4.9873752864    1      B     10
       9.1408647960       3.9443539248       6.0996504816    1      B     11
       2.9376999864       3.6816290640       8.6226519168    1      B     12
       1.7333611632       8.2172971368       1.6293888072    1      B     13
       7.5991425480       1.2495919896       3.9918056256    1      B     14
       2.2473601848       1.8810293904       5.6046138192    1      B     15
       6.4848520296       0.8021902392       6.2340358968    1      B     16
       8.8615593216       7.3042641216       2.8830114432    1      B     17
       9.0594274176       8.1612345096       5.3352017496    1      B     18
       7.4190459384       2.1399984216       1.8264324528    1      B     19
       3.2042722824       1.3701449592       3.2178299112    1      B     20
       8.8357265424       1.4558878008       5.8860262224    1      B     21
       6.4844856072       6.1270405560       2.1334028184    1      B     22
       4.1332446720       0.6202615176       7.1725352688    1      B     23
       6.9032148048       8.4880832904       2.0966689728    1      B     24
       4.5527983200       2.9209361616       1.7754081336    1      B     25
       0.8741006352       0.5821535880       3.5834278608    1      B     26
       5.0731181280       9.1015659936       4.3940458152    1      B     27
       1.5024234456       1.0334943792       8.9066292768    1      B     28
       7.6195705968       0.9517821840       8.3840193288    1      B     29
       8.3484763560       5.0627666952       4.3611594048    1      B     30
       5.4296471232       8.7169140792       0.0033894072    1      B     31
       0.1375000056       7.5913560720       8.1357681528    1      B     32
       0.6726599208       3.7116757008       8.9121256128    2      N     33
       0.0148401072       0.5132661768       8.7415559856    2      N     34
       6.0774819264       2.9090274336       2.0985010848    2      N     35
       4.1294888424       3.7430048160       0.5043804336    2      N     36
       5.3518739688       1.6423051968       7.1142741072    2      N     37
       3.6279481824       5.7586944384       5.5162144152    2      N     38
       2.9737009872       2.5186959720       2.1299218056    2      N     39
       5.8682547360       3.8624585184       5.3142240672    2      N     40
       4.1003582616       9.0287395416       8.5055799600    2      N     41
       8.9011329408       0.4590356616       4.7035811376    2      N     42
       4.7523153168       7.6871755296       3.8635577856    2      N     43
       1.5978764808       7.5624087024       8.7501669120    2      N     44
       2.0045137392       1.2757911912       4.2011244216    2      N     45
       6.8157314568       8.7480599832       8.4966942168    2      N     46
       2.3713941672       2.2238175456       8.2973604312    2      N     47
       6.5681215200       0.1059876792       4.8055381704    2      N     48
       8.6578284672       6.8986345248       4.4196037776    2      N     49
       3.0394738080       7.2984013632       1.8110427120    2      N     50
       4.8468522960       5.8706364816       7.9109680104    2      N     51
       1.9031063400       5.7118839768       7.3663727184    2      N     52
       0.8328781152       2.4902066304       6.0053883192    2      N     53
       5.3977683744       8.3627668296       1.4754913992    2      N     54
       7.6294640016       0.7160809752       2.4551216856    2      N     55
       6.4472021280       5.2078699656       0.5720769720    2      N     56
       7.7374670040       1.5720437016       6.9596438544    2      N     57
       2.6854181640       0.9398734560       6.7535312544    2      N     58
       1.0470520080       4.9525651584       5.0480181936    2      N     59
       0.6317122176       8.5831699032       2.6469438120    2      N     60
       8.5024653696       7.7163061104       6.7581115344    2      N     61
       4.3840608048       1.3388158440       4.2897986424    2      N     62
       8.1874337112       6.6494672928       1.5550966656    2      N     63
       7.7700785976       2.0997835632       0.2499916824    2      N     64
%endblock AtomicCoordinatesAndAtomicSpecies
MD.UseSaveXV              F     # default value
MD.UseSaveZM              F     # default value
WriteCoorInitial              T     # default value
MD.TypeOfRun     CG     # default value
MD.TypeOfRun     none     # default value
MaxBondDistance          6.000000000     Bohr     # default value
Output-Structure-Only              F     # default value
WriteCoorXmol              F     # default value
#:physical? MaxWalltime              F
MaxWalltime          7200000.000    
#:physical? MaxWalltime.Slack              F
MaxWalltime.Slack          5.000000000         # default value
HSetupOnly              F     # default value
LongOutput              F     # default value
WriteDenchar              F     # default value
WriteMullikenPop         0     # default value
WriteOrbMom              T
WriteHirshfeldPop              F     # default value
WriteVoronoiPop              F     # default value
PartialChargesAtEveryGeometry              F     # default value
PartialChargesAtEveryScfStep              F     # default value
MeshCutoff          400.0000000             Ry
# above item originally: MeshCutoff          400.0000000     Ry        
NetCharge          0.000000000         # default value
MinSCFIterations         0     # default value
MaxSCFIterations           1000
SCF.MustConverge              T     # default value
#:block? TS.MixH              F
#:defined? TS.MixH              F
#:block? MixHamiltonian              F
#:defined? MixHamiltonian              F
#:block? MixCharge              F
#:defined? MixCharge              F
TS.MixH              T     # default value
MixHamiltonian              T     # default value
MixCharge              F     # default value
SCF.Mix     Hamiltonian     # default value
Compat-pre-v4-DM-H              F     # default value
SCF.MixAfterConvergence              F     # default value
SCF.Recompute-H-After-Scf              F     # default value
DM.NumberPulay             10
DM.NumberBroyden         0     # default value
DM.FIRE.Mixing              F     # default value
DM.MixSCF1              T
SCF.Mix.First              T     # default value
SCF.Mix.First.Force              F     # default value
DM.PulayOnFile              F     # default value
DM.MixingWeight         0.2500000000E-01
DM.OccupancyTolerance         0.1000000000E-11     # default value
DM.NumberKick         0     # default value
DM.KickMixingWeight         0.5000000000         # default value
DM.RequireHarrisConvergence              F     # default value
SCF.Harris.Converge              F     # default value
DM.HarrisTolerance         0.7349864435E-05 Ry     # default value
SCF.Harris.Tolerance         0.7349864435E-05 Ry     # default value
SCF.DM.Converge              T     # default value
DM.Tolerance         0.1000000000E-04
SCF.DM.Tolerance         0.1000000000E-04     # default value
SCF.EDM.Converge              F     # default value
SCF.EDM.Tolerance         0.7349864435E-04 Ry     # default value
SCF.H.Converge              T     # default value
SCF.H.Tolerance         0.7349864435E-04 Ry     # default value
DM.RequireEnergyConvergence              F     # default value
SCF.FreeE.Converge              F     # default value
DM.EnergyTolerance         0.7349864435E-05 Ry     # default value
SCF.FreeE.Tolerance         0.7349864435E-05 Ry     # default value
MonitorForcesInSCF              F     # default value
SCF.MonitorForces              F     # default value
DFTD3              F     # default value
UseSaveData              F     # default value
#:block? UseSaveData              F
#:defined? UseSaveData              F
DM.UseSaveDM              T     # default value
NeglNonOverlapInt              F     # default value
SolutionMethod     diagon                                                                          
ElectronicTemperature         0.3166811563E-03         Ry
# above item originally: ElectronicTemperature          50.00000000     K         
FixSpin              F     # default value
Spin.Fix              F     # default value
ON.MaxNumIter      1000     # default value
ON.etol         0.1000000000E-07     # default value
ON.eta          0.000000000     Ry     # default value
ON.eta_alpha          0.000000000     Ry     # default value
ON.eta_beta          0.000000000     Ry     # default value
On.RcLWF          9.500000000     Bohr     # default value
ON.UseSaveLWF              F     # default value
ON.functional     kim     # default value
ON.ChemicalPotentialUse              F     # default value
ON.ChemicalPotential              F     # default value
ON.ChemicalPotentialRc          9.500000000     Bohr     # default value
ON.ChemicalPotentialTemperature         0.5000000000E-01 Ry     # default value
ON.ChemicalPotentialOrder       100     # default value
TDED.WF.Initialize              F     # default value
TDED.Saverho              F     # default value
TDED.Nsaverho       100     # default value
TDED.Write.Etot              T     # default value
TDED.Write.Eig              F     # default value
TDED.Write.Dipole              F     # default value
TDED.Extrapolate              F     # default value
TDED.TimeStep         0.1000000000E-02 fs     # default value
TDED.Nsteps         1     # default value
TDED.Extrapolate.Substeps         3     # default value
TDED.Inverse.Linear              T     # default value
TDED.WF.Save              F     # default value
MD.VariableCell              F     # default value
compat-pre-v4-dynamics              F     # default value
MD.TypeOfRun     cg     # default value
MD.UseSaveCG              F     # default value
Optim.Broyden              F     # default value
#:block? Optim.Broyden              F
#:defined? Optim.Broyden              F
MD.NumCGsteps         0     # default value
MD.Steps         0     # default value
MD.MaxCGDispl         0.2000000000     Bohr     # default value
MD.MaxDispl         0.2000000000     Bohr     # default value
MD.MaxForceTol         0.1555740000E-02 Ry/Bohr     # default value
MD.MaxStressTol         0.6797730000E-04 Ry/Bohr**3     # default value
GeometryMustConverge              T
MD.InitialTimeStep         1     # default value
#:block? MD.Steps              F
#:defined? MD.Steps              F
MD.FinalTimeStep         1     # default value
MD.LengthTimeStep          1.000000000     fs     # default value
MD.Quench              F     # default value
MD.FireQuench              F     # default value
MD.InitialTemperature          0.000000000     K     # default value
MD.TargetTemperature          0.000000000     K     # default value
#:block? MD.TargetPressure              F
#:defined? MD.TargetPressure              F
MD.TargetPressure          0.000000000     Ry/Bohr**3     # default value
Target.Pressure          0.000000000     Ry/Bohr**3     # default value
MD.NoseMass          100.0000000     Ry*fs**2     # default value
MD.ParrinelloRahmanMass          100.0000000     Ry*fs**2     # default value
MD.AnnealOption     TemperatureAndPressure     # default value
MD.TauRelax          100.0000000     fs     # default value
MD.BulkModulus         0.6797730000E-02 Ry/Bohr**3     # default value
MD.FCDispl         0.4000000000E-01 Bohr     # default value
MD.FCfirst         1     # default value
MD.FClast        64     # default value
UseSpatialDecomposition              F     # default value
UseDomainDecomposition              F     # default value
SCF.Mix.Spin     all     # default value
Mixer.Debug              F     # default value
Mixer.Debug.MPI              F     # default value
DM.NumberPulay             10
DM.NumberBroyden         0     # default value
DM.MixingWeight         0.2500000000E-01
DM.NumberKick         0     # default value
DM.KickMixingWeight         0.5000000000         # default value
SCF.LinearMixingAfterPulay              F     # default value
SCF.MixingWeightAfterPulay         0.2500000000E-01     # default value
SCF.Mixer.History        10     # default value
SCF.Mixer.Weight         0.2500000000E-01     # default value
SCF.Mixer.Kick         0     # default value
SCF.Mixer.Kick.Weight         0.5000000000         # default value
SCF.Mixer.Restart         0     # default value
SCF.Mixer.Restart.Save         1     # default value
SCF.Mixer.Method     Pulay     # default value
SCF.Mixer.Variant     original     # default value
SCF.Mixer.Linear.After        -1     # default value
SCF.Mixer.Linear.After.Weight         0.2500000000E-01     # default value
#:block? ChargeGeometries              F
#:defined? ChargeGeometries              F
#:block? ChargeGeometries              F
#:defined? ChargeGeometries              F
BulkBias.V          0.000000000     Ry     # default value
BulkBias.Voltage          0.000000000     Ry     # default value
BulkBias.Tolerance         0.1000000000E-14     # default value
BulkBias.Current              T     # default value
Harris_functional              F     # default value
ForceAuxCell              F     # default value
#:block? Optim.Broyden.History.Steps              F
#:defined? Optim.Broyden.History.Steps              F
#:block? Optim.Broyden.Cycle.On.Maxit              F
#:defined? Optim.Broyden.Cycle.On.Maxit              F
#:block? Optim.Broyden.Variable.Weight              F
#:defined? Optim.Broyden.Variable.Weight              F
#:block? Optim.Broyden.Debug              F
#:defined? Optim.Broyden.Debug              F
#:block? Optim.Broyden.Initial.Inverse.Jacobian              F
#:defined? Optim.Broyden.Initial.Inverse.Jacobian              F
Write.Kpoints              F     # default value
Write.Forces              F     # default value
Write.DM              T     # default value
Write.DM.End.Of.Cycle              T     # default value
Write.H              F     # default value
Write.H.End.Of.Cycle              F     # default value
Write.DM.NetCDF              F     # default value
WriteDM.History.NetCDF              F     # default value
WriteDMHS.NetCDF              T
WriteDMHS.History.NetCDF              F     # default value
SCF.Read.Charge.NetCDF              F     # default value
SCF.Read.Deformation.Charge.NetCDF              F     # default value
Write.TSHS.History              F     # default value
SaveInitialChargeDensity              F     # default value
AnalyzeChargeDensityOnly              F     # default value
UseNewDiagk              F     # default value
Diag.WFS.Cache     none     # default value
WriteBands              F     # default value
WriteKbands              F     # default value
WriteEigenvalues              F     # default value
WriteCoorStep              F     # default value
WriteMDhistory              F     # default value
WriteMDXmol              T     # default value
WriteOrbitalIndex              T     # default value
Write.Graphviz     none     # default value
WriteCoorStep              F     # default value
SaveHS              T
ReInitialiseDM              T     # default value
DM.AllowReuse              T     # default value
DM.AllowExtrapolation              T     # default value
DM.History.Depth         1     # default value
DM.NormalizationTolerance         0.1000000000E-04     # default value
DM.NormalizeDuringSCF              T     # default value
MullikenInSCF              F     # default value
SpinInSCF              F     # default value
WarningMinimumAtomicDistance          1.000000000     Bohr     # default value
BornCharge              F     # default value
ChangeKgridInMD              T     # default value
MD.RelaxCellOnly              F     # default value
MD.RemoveIntraMolecularPressure              F     # default value
COOP.Write              F     # default value
SaveRho              F     # default value
SaveDeltaRho              F     # default value
SaveRhoXC              F     # default value
SaveElectrostaticPotential              F     # default value
SaveNeutralAtomPotential              F     # default value
SaveTotalPotential              F     # default value
SaveIonicCharge              F     # default value
SaveBaderCharge              F     # default value
SaveTotalCharge              F     # default value
Siesta2Wannier90.WriteMmn              F     # default value
Siesta2Wannier90.WriteUnk              F     # default value
Siesta2Wannier90.WriteAmn              F     # default value
Siesta2Wannier90.WriteEig              F     # default value
#:block? Siesta2Wannier90.NumberOfBandsUp              F
#:defined? Siesta2Wannier90.NumberOfBandsUp              F
#:block? Siesta2Wannier90.NumberOfBandsDown              F
#:defined? Siesta2Wannier90.NumberOfBandsDown              F
#:block? Siesta2Wannier90.NumberOfBands              F
#:defined? Siesta2Wannier90.NumberOfBands              F
Siesta2Wannier90.NumberOfBandsUp         0     # default value
Siesta2Wannier90.NumberOfBandsDown         0     # default value
Siesta2Wannier90.NumberOfBands         0     # default value
#:block-line-count? Wannier.Manifolds   0
Wannier.Manifolds.R.between              F     # default value
Wannier.Manifold.IndexPerturbed         1     # default value
Wannier.Mmn.Diagonal              F     # default value
DM.AllowReuse              T     # default value
DM.AllowExtrapolation              T     # default value
DM.AllowExtrapolation              F     # default value
NumberOfEigenStates       832     # default value
RcSpatial          0.000000000     Bohr     # default value
ProcessorGridX         1     # default value
ProcessorGridY         1     # default value
ProcessorGridZ         1     # default value
FFT.ProcessorY.traditional              F     # default value
processorY         6     # default value
blocksize        35     # default value
Spin.Spiral              F     # default value
TimeReversalSymmetryForKpoints              T     # default value
%block kgrid.MonkhorstPack
      6      0      0       0.0000000000
      0      6      0       0.0000000000
      0      0      6       0.0000000000
%endblock kgrid.MonkhorstPack
#:block? ProjectedDensityOfStates              F
#:block? LocalDensityOfStates              F
Diag.ParallelOverK              F     # default value
Diag.ProcessorY         4     # default value
Diag.BlockSize        35     # default value
Diag.Use2D              T     # default value
Diag.UpperLower     lower     # default value
Diag.DivideAndConquer              T     # default value
Diag.MRRR              F     # default value
Diag.NoExpert              F     # default value
Diag.Algorithm     Divide-and-Conquer     # default value
Diag.AbsTol         0.1000000000E-15     # default value
Diag.OrFac         0.1000000000E-05     # default value
Diag.Memory          1.000000000         # default value
#:block? BandLines              F
#:defined? BandLines              F
#:block? BandPoints              F
#:defined? BandPoints              F
LongOutput              F     # default value
WriteWaveFunctions              F     # default value
#:block-line-count? MetaForce (iirrr)   0
#:block? TS.BufferAtomsLeft              F
#:defined? TS.BufferAtomsLeft              F
#:block? TS.BufferAtomsRight              F
#:defined? TS.BufferAtomsRight              F
#:list? TS.Atoms.Buffer              F
TS.HS.Save              F     # default value
TS.DE.Save              F     # default value
TS.onlyS              F     # default value
TS.S.Save              F     # default value
Spin.Spiral              F     # default value
TimeReversalSymmetryForKpoints              T     # default value
#:list? TS.kgrid.MonkhorstPack                                                                                                                                                                                                                                                        F
#:block? TS.kgrid.Cutoff                                                                                                                                                                                                                                                               F
#:defined? TS.kgrid.Cutoff                                                                                                                                                                                                                                                               F
#:block? TS.kgrid.File                                                                                                                                                                                                                                                                 F
#:defined? TS.kgrid.File                                                                                                                                                                                                                                                                 F
AtomicCoordinatesFormat     Ang                                                                             
AtomCoorFormatOut     Ang                        # default value
LatticeConstant          1.889726125           Bohr
# above item originally: LatticeConstant          1.000000000     Ang       
debug-folding              F     # default value
Save.Overlap.Gradient              F     # default value
Sonly              F     # default value
File.DM.Init     aiida.DM     # default value
DM.Init     atomic     # default value
DM.Init.RandomStates         0     # default value
Sonly              F     # default value
Debug.DHSCF              F     # default value
MeshSubDivisions         2     # default value
#:list? Mesh.Sizes              F
#:block? MeshSizes              F
#:defined? MeshSizes              F
XC.Use.BSC.CellXC              F     # default value
PROCS_PER_NODE         4     # default value
PROCS_PER_NODE         4     # default value
DirectPhi              F     # default value
SimulateDoping              F     # default value
Slab.DipoleCorrection     none     # default value
Read-H-from-file              F     # default value
timing-split-scf-steps              F     # default value
SingleExcitation              F     # default value
OccupationFunction     FD     # default value
OccupationFunction     FD     # default value
timing-split-scf-steps              F     # default value
timing-split-scf-steps              F     # default value
timing-split-scf-steps              F     # default value
timing-split-scf-steps              F     # default value
timing-split-scf-steps              F     # default value
timing-split-scf-steps              F     # default value
timing-split-scf-steps              F     # default value
timing-split-scf-steps              F     # default value
timing-split-scf-steps              F     # default value
timing-split-scf-steps              F     # default value
timing-split-scf-steps              F     # default value
timing-split-scf-steps              F     # default value
timing-split-scf-steps              F     # default value
timing-split-scf-steps              F     # default value
timing-split-scf-steps              F     # default value
timing-split-scf-steps              F     # default value
timing-split-scf-steps              F     # default value
timing-split-scf-steps              F     # default value
timing-split-scf-steps              F     # default value
timing-split-scf-steps              F     # default value
timing-split-scf-steps              F     # default value
timing-split-scf-steps              F     # default value
timing-split-scf-steps              F     # default value
timing-split-scf-steps              F     # default value
timing-split-scf-steps              F     # default value
timing-split-scf-steps              F     # default value
timing-split-scf-steps              F     # default value
timing-split-scf-steps              F     # default value
timing-split-scf-steps              F     # default value
timing-split-scf-steps              F     # default value
timing-split-scf-steps              F     # default value
timing-split-scf-steps              F     # default value
timing-split-scf-steps              F     # default value
timing-split-scf-steps              F     # default value
timing-split-scf-steps              F     # default value
timing-split-scf-steps              F     # default value
timing-split-scf-steps              F     # default value
timing-split-scf-steps              F     # default value
timing-split-scf-steps              F     # default value
compute-forces              T     # default value
#:list? Grid.CellSampling              F
Read-H-from-file              F     # default value
WriteCoorXmol              F     # default value
WriteCoorCerius              F     # default value
BasisPressure         0.2000000000     GPa     # default value
OpticalCalculation              F     # default value
