64
Lattice="7.94676587545529 0.0 0.0 0.0 7.94676587545529 0.0 0.0 0.0 7.94676587545529" Properties=species:S:1:pos:R:3:forces:R:3 energy=-17263.5016461 pbc="T T T"
B 5.896361211185004 6.610113497791009 5.586342775528331 -1.9397036851868157 0.543417768759345 0.5754979491204427 
B 2.7553265046354842 2.5993060608494956 6.492763606108161 0.9527318886812798 -0.6451674146465785 0.9603737243550892 
B 6.086728371761299 4.256054167977115 0.7294725788608307 0.6832637215446342 3.495259988936976 2.356354707833595 
B 6.403714531737572 2.9418164381411436 3.5685500490577384 1.6164732166214342 0.528285021223735 -0.6118052817698488 
B 0.29600908209483406 2.8559532222100246 6.192081825678559 -1.9262053885420747 0.952252377762376 2.2620496939339514 
B 1.7875876338840526 2.2821156689902233 4.745421573323765 3.2601407444393944 -0.34016221765572013 -1.2306273638012524 
B 0.006360591406714414 2.6373591492441135 1.6206093946323987 0.8164428013394829 -2.135083173031043 -1.6821451294574286 
B 2.4595447000446886 5.941866776617624 3.8886863070270423 2.2895389107733632 -1.8108278623623104 -0.6739653234844998 
B 1.4790290191186997 0.7477453723148527 0.284680172662785 -4.316250816359294 1.74102932740921 0.7613370980065797 
B 5.046855912481772 6.3643629417989045 1.391232355050082 0.47545268815621855 -0.5253876439877428 -1.679884871823068 
B 4.012420630414232 0.1932152814660573 5.714735493071711 1.5745467359116316 0.7152282022202056 -2.1188690191013806 
B 0.294157485645853 4.364922476441089 7.818348522937695 -0.5028442030389638 -0.010680109415731403 0.018561314883374213 
B 2.571492380285402 4.265696773690393 0.2924068131234902 -0.34319149253321235 1.442090136375292 0.24917187119120057 
B 0.86041064551412 4.335567917973745 3.117771344125712 1.3546196314548964 -0.07434784658799688 -0.9343140414079582 
B 2.326491204315353 2.253977760378411 2.3995402602723006 2.998645828297988 1.7122627860415869 1.531963595208864 
B 1.7392172593533317 5.061539946466438 6.052169476322118 0.5746623402805302 2.442102058770885 3.2640519080310098 
B 3.617023731544841 0.2771172355791142 1.723197374025001 1.833253803852677 0.800030929502776 -0.8752488377259311 
B 5.904334996064436 3.0437750336764102 5.959237612144782 2.594415038337257 -2.141448712618291 -0.3256750743653472 
B 4.23511761860164 5.648306093089018 7.0178493400352195 -0.09107416445892315 3.050349960876417 0.5630574047118247 
B 0.09955708288770386 6.881133179913887 7.249998211554895 2.1402009557874924 -1.0057940784573751 2.799447222389742 
B 4.919876129911047 4.749794678585028 4.238428241265354 -5.022733665016181 0.5388460885185804 -1.2844824820888219 
B 0.18956851060581084 1.1428959214421044 3.620053038696564 0.2818526614753862 -3.1464712027284114 -0.6579452879161088 
B 4.337537921234271 2.1062990367318872 4.368610570483888 -2.9085790224343815 -2.1171985727527924 -1.2741381588715293 
B 6.63192260205961 5.557008878652263 3.0313073526944088 -1.0851401514601107 -2.4884631798717063 -0.7375204462961863 
B 1.6010388943109148 7.755647745503765 5.450474535325909 -0.14417492079686076 0.28862443551403744 4.220987294842668 
B 7.1116338921909925 0.6284771313496695 5.692552890806965 0.6100055088838833 -0.7906296872777292 -1.0392701112467453 
B 1.8253236463202398 0.2108443868841673 2.9425936318437635 -1.1518019393833858 -0.6971181161103842 -1.0256648566704953 
B 0.3795669412454838 6.626405957188868 4.3131532701454365 0.9664613275866613 -0.027356804977087482 -1.8704322265788904 
B 5.0630522160125375 7.345521516084218 3.6241027105866963 -1.9124448392768074 1.8077749333268887 0.503716064447008 
B 5.556204665945666 7.848742518381549 7.479610475407125 -1.8838361637023244 0.5978986937904058 1.4419482114277131 
B 4.569015291037471 2.50425638356635 7.807244506979921 0.8444143573123336 -4.611559608371807 0.8596448068046104 
B 0.9542301634397452 5.907285630233993 1.8564344400460597 0.2773164624715163 3.1283384909023093 -4.030043732941521 
N 0.6438628647611384 5.481225340557571 7.012058531741776 -2.884506288753356 -3.0742391177230735 -2.8364243276631393 
N 1.2283331907222992 7.878279852464029 6.982221604585791 2.1601576088783143 1.4255108856601904 -3.2205704235477333 
N 1.548581498090447 0.8805588757147493 4.295322316874089 4.501631280269922 2.793299455321696 0.4279592527997125 
N 7.058340496200427 2.0900343910145933 5.966686115799846 0.47677217879204353 -1.4207237468939347 -0.7042315898869566 
N 7.439713737329402 2.1879329838640897 2.9383095303603053 -6.144274223094944 -0.5592634834682096 2.4508926637667647 
N 5.365479900904977 3.277704775428775 4.5699760550318125 0.9411611487974076 0.8603089229995315 0.15887803683354956 
N 4.475354708429354 6.757851027505011 6.000291399333971 -1.2951867598833076 1.4353379027279742 -2.9312924133656777 
N 0.1266936989992086 5.65099925204421 3.1867977471965045 -4.184728298950771 -3.9613859968877096 0.7550764594675426 
N 0.21357727966873638 6.513797900703904 0.733132064546478 -0.6406612975609455 1.4179950340883987 2.7283497656337987 
N 3.553324045640366 5.072744091674243 3.9176316070518005 1.3604794348611877 0.045131104888470226 0.9419741319210396 
N 4.696297050711462 0.5778506699869065 4.440555025984148 3.546953579988502 -2.70877903527181 -1.1891366852402658 
N 5.356144040354492 3.6058426319580748 7.22451929080501 13.952463933195785 -69.46576748801262 -15.403311507323771 
N 6.738460124092312 7.440943896686923 6.567844650099463 -0.9903103752090019 -0.04864914665970816 -0.3089402718508157 
N 5.8824003328950045 5.2574539496238 1.7955296316999827 -0.985083577637746 -0.4108925207429264 0.6092560320320849 
N 3.55814375914383 1.6788440896443226 5.670948018421365 -3.287355624468903 1.7847653512006447 2.895483360695272 
N 7.6975282785970345 0.010591449558806811 4.473072397269924 -4.226490743217538 -1.3789618168479918 1.0680834467094034 
N 3.4583125128334227 2.465798010112084 3.2594510542128545 -2.004359497673476 -0.06012038481402753 -1.0753342174461338 
N 5.163443709317164 4.51550653769168 7.373930409412383 -11.463486789609927 69.2145204786839 13.582383833746247 
N 3.170339200391849 2.989583653141918 7.8000169234161945 -0.2864158570725455 -1.899023161534926 1.0820111177426535 
N 2.8754704792001426 5.101219737835762 7.069816420801172 0.09659072546481962 1.7609782671876635 -0.6352300972119262 
N 4.884074360288945 6.644174131009799 0.011944783787396846 -0.8438517997302633 -0.04477474985704906 4.789712698593223 
N 4.55356836752876 7.328275444781305 2.284305002988911 0.0636181148626953 1.1619675708641433 1.3896954052294774 
N 1.6341912121901394 6.2410497970031145 5.067174998148723 0.16312961461102457 0.7263410284598055 0.5176457923635562 
N 5.113014327748112 1.1819638118390177 7.924165273305495 -1.0690301272474212 0.26890046734632955 0.6790972473136242 
N 0.4261516774839903 1.5964782453749913 0.7236364740018965 0.4922443120718641 -1.5985906732264814 -2.679208509644985 
N 5.757680610539259 6.046615481651763 4.185112594330338 1.8496600192603139 -0.3282865448228831 -0.4299096923872745 
N 2.305224864156047 0.9055864201629084 1.6385023326775738 2.8781615751095035 -0.8166852564582636 0.21113238569425888 
N 1.171307198800032 3.14748748044039 2.403427023461986 2.8739349370420197 -0.5370429731972552 1.555447546045766 
N 1.62185544752167 3.396068674437332 5.8075259048164645 -0.23427592234530115 -2.109495287690448 -2.4893736078415927 
N 7.410188323395735 3.685515317272215 0.7752705852776672 -2.414569904492622 2.0976746364858387 -0.8670637277509723 
N 1.8044093478892165 6.694319018360509 2.822073775253196 2.5710809828707144 4.229164691505258 -0.22041304313594598 
N 1.7200711163295972 4.749545944813126 1.347208861453235 2.1100899840740532 -0.015309896609671443 -1.1687694268210314 