64
Lattice="8.410734728770015 0.0 0.0 0.0 8.410734728770015 0.0 0.0 0.0 8.410734728770015" Properties=species:S:1:pos:R:3:forces:R:3 energy=-17237.2789343 pbc="T T T"
B 2.8933776951176453 7.470176562300703 7.670718756879603 -3.728332120331979 -1.9738962846952126 -2.4046955791089784 
B 3.5239918760970537 0.7688513348345262 5.65313068330543 -2.436855977918708 3.47712907688376 1.619966318682681 
B 0.8087527014612841 3.9913612656522917 2.3231551127112247 0.16589278021180615 0.4133962619377167 -3.7116690516224735 
B 1.613476660987487 7.059760462961331 5.052686648871593 -3.832609418682345 0.5820496366461816 4.495806443879701 
B 2.817890509853462 0.11920786653127605 3.5994134576303534 -3.3689606695539367 1.5294644820014949 -0.06083052377274705 
B 3.7050615376319063 3.4988959258133496 5.814071774487391 -0.04283228069226775 2.4646591265715148 2.799466505670663 
B 7.569963201269776 3.1086756827047006 4.492112020272544 -0.09655318734462662 -2.8053412214808664 -0.7556359317246656 
B 6.490027385316125 2.899255957619583 0.058123223416638066 0.4546388289508524 4.951466515388133 -4.203266731007451 
B 5.6909453466459805 1.4240467291322374 5.717904274672107 0.0908836456434231 5.972532695224574 2.4415780677506564 
B 0.39867471365800883 7.944362011280136 8.103742070096436 2.1327948903617444 0.4034700002507926 1.824991303643622 
B 0.0856120277306771 8.276189887460827 3.1246712180118754 1.0057267155293577 -0.10145885401094394 3.1042814409564334 
B 1.067061504304323 4.304535814351516 6.072277966366739 5.438784077739872 -0.172475578097431 -1.6924549998794753 
B 0.950519840682067 1.755744238924632 5.090449165656825 2.9820362385542376 -1.2394660484442288 3.035515975639877 
B 4.113154592039192 0.13503686929082123 2.258371428462874 -2.34479039571003 3.7757815898079854 0.9540632063960696 
B 3.159019817570699 3.525882609264081 1.0322469500415252 0.6351647911672069 -3.540795785614377 3.0397081609121153 
B 0.9250285858661108 0.8885058113798999 6.674830571997079 1.6229472568026642 -0.21133164626377646 1.354938705476537 
B 7.60571807567525 5.415900863839635 1.8079387354309602 -1.913448084105527 -0.21681195470154133 1.2697384854965803 
B 7.129521620022168 6.042773950011687 6.326740540218311 -4.340504812880978 2.4418351781629375 0.0734525881324352 
B 1.8771733804977762 6.961232910981155 1.6826154236783954 3.402547774041413 1.8252525278224994 -1.4011265341594812 
B 6.056350558010867 0.7646854979233664 3.452805940573163 1.95261165632496 4.291327818544857 0.20747524718997704 
B 5.787190225220768 4.644955256057645 4.73474153143421 -0.44833371031049074 -0.9171899737292336 -0.6701564898369723 
B 6.556490693289811 7.987199565400707 1.444714427581244 2.904932425457003 -0.8305615054090575 0.8863495797761537 
B 4.362278031484941 6.428214372573975 5.792605056239151 -1.3254905644059574 -4.72523249251815 2.5081848340457036 
B 3.8678126189274975 5.601687265410381 3.2344969099532084 -1.7896244808823392 -1.575920476844448 -5.78188481029755 
B 5.261452859868285 5.98773241979967 0.6436230643843965 1.913355010136281 -1.6454698718080487 -1.586260686295144 
B 7.091785176514596 8.309250803532676 5.079505958701222 2.0255248268124304 -1.2517754665425835 1.3595993459199505 
B 4.296310115786779 2.879089538960411 3.4830686052007502 3.5808854695388455 -0.3153060685484756 -2.9385223581590134 
B 6.532536079708801 8.305598021439971 7.589877297887084 0.18639142205171605 1.409843862687861 -0.3315140518282438 
B 4.254793888092097 1.1721813901649092 8.14557790571081 -0.1556212192411889 3.4907358741224837 -0.5967599517744143 
B 8.296114918033282 5.371833660301718 4.295850048597115 1.7908012752393483 2.40447369282318 0.9778564610589454 
B 6.969870735547602 2.8664288599731935 2.5919958375816297 0.18014852413112636 4.4308559828605665 0.7459073879447854 
B 1.241110725561071 1.6956470160671517 1.1017684011625923 4.775326599694876 2.9332500520447837 -4.727932666067923 
N 4.835381859978254 1.5089118836189999 2.853162608085505 0.677876487076115 -3.3869015770124777 0.5561218513405507 
N 0.48332707655613333 3.1810803336907902 5.239920537889162 -2.5039502255554393 0.1518725494301351 -1.3175911040990427 
N 4.0965888089174065 2.4056854472372806 0.5520352096289284 -1.0450226996111154 0.5265623814614537 -1.1566785525731154 
N 2.6629227224758742 0.9219393230002337 1.4973160036484445 -0.9658100669123539 0.5042182010821924 0.635551228116865 
N 5.811460241354108 3.654141267436987 3.600091362849492 0.13120704293265498 0.011474323479266739 0.11125681760213997 
N 1.7750594912292526 7.798657807132815 6.411885772171542 -2.014814635478462 0.5874661817017008 0.0869501134459394 
N 1.4887311667107892 8.140141206782134 2.6380446102216455 1.1953309892929342 -1.7304569472562241 -0.425773042964089 
N 6.6651851414101255 2.460361951562069 6.874541785984776 -1.1033749361198881 -1.3197184356502538 5.075550828569373 
N 3.3996467327934448 6.4029182468037265 1.7734580873368946 0.387937446024086 0.10271560970617241 4.3579271286379475 
N 4.311669799548459 2.1579144539359176 5.4923376210546975 0.1785600960040557 -1.341315196061015 -0.43665035606603975 
N 6.931084632345879 5.552923507599918 4.890922146759687 2.587303878554395 -1.8449091330621898 0.7401506858138187 
N 6.151272428012819 5.804232055928203 7.473903358859022 1.674029182183373 -5.748072219978504 2.7719456642505405 
N 7.255905525424031 0.4192431654372159 2.5644691849613115 -2.02556313626386 -0.9271429748990349 0.7581962372101576 
N 0.17758257091630433 7.838096583349491 4.66060006372663 -3.480505193707419 2.219776371277982 -4.863670765796202 
N 5.968223720596288 4.393949494179598 8.158945086415246 -1.1763842659015513 3.904930463890332 1.2663052901613951 
N 6.716326613928411 1.7817090181058182 4.5669162538767525 -0.6257504363111339 -4.741437133362559 1.8891521785866419 
N 1.0913189043355687 5.6825262011824815 5.454395114546269 -3.2573390122767703 -1.9093101491302802 -2.307616086750413 
N 3.5181329582849927 6.0211600439056925 7.529268702358095 2.1169329776969064 4.1406788575667655 -1.8620434851574057 
N 1.6806128277394754 7.312789847615122 0.21768327195613402 -3.4444698838742065 0.4668158351868825 1.9404788730798426 
N 0.5630928025768424 5.470990335239606 2.9035597305802945 -3.4475855478502253 -3.6934448084896 -2.8012392819633387 
N 3.7381603020100345 3.9808789669598252 2.4747291686257538 0.143157792005878 1.01060024339414 3.2875749396505785 
N 7.528605936461468 0.0805580172321592 0.30509351477182217 -1.0840888269842943 -3.547940626861248 -3.467136480710468 
N 1.6078179186619708 3.3445395988505435 1.2050387664563222 0.9542048742332363 0.24871370043651622 3.9737373239832663 
N 2.4695271291960093 3.955013434448439 6.670606701016291 -0.5253094824224095 -0.9708607438511977 -1.6474539928596195 
N 4.655368586725335 4.714515396558464 5.729295773788753 0.4774380947598507 0.4756396074259467 -3.654035181605614 
N 3.3881315958762857 0.43704028012329327 7.178726100332418 1.9015711257206283 -0.5510994565470579 0.40786170320296056 
N 7.640828687800501 3.709589877209876 1.2951959552344265 -2.9172472428740157 0.06328978486621273 3.35013298828344 
N 6.439655495025521 6.469721348460456 1.8160786445014638 0.39770044259921183 -2.373718402416565 -3.3398727401709634 
N 2.304026578717583 1.1675748307539617 4.706198862058656 1.1679633856785312 -1.2589079664896647 -2.8550231806667066 
N 6.465716997656088 7.528469682558862 6.297130548605676 3.5445943348454128 0.7866282779314033 -1.1343798807368277 
N 5.572522201664899 1.0311947671269561 7.463626282093937 1.2634840176074382 -0.11817000236754564 -2.697110336320859 
N 0.9630047353134533 2.069312410009163 7.8615120688343865 -0.5995138614003538 -5.0124682746954585 0.9212116947981296 