<preamble>

<basis_specs>
===============================================================================
C                    Z=   6    Mass=  12.011        Charge= 0.17977+309
Lmxo=2 Lmxkb= 1    BasisType=split      Semic=F
L=0  Nsemic=0  Cnfigmx=2
          i=1  nzeta=2  polorb=0  (2s)
            splnorm:   0.15000    
               vcte:    40.000    
               rinn:    4.3728    
               qcoe:    0.0000    
               qyuk:    0.0000    
               qwid:   0.10000E-01
                rcs:    4.8587      3.1571    
            lambdas:    1.0000      1.0000    
L=1  Nsemic=0  Cnfigmx=2
          i=1  nzeta=2  polorb=1  (2p)  (to be polarized perturbatively)
            splnorm:   0.15000    
               vcte:    40.000    
               rinn:    5.3914    
               qcoe:    0.0000    
               qyuk:    0.0000    
               qwid:   0.10000E-01
                rcs:    5.9844      3.8894    
            lambdas:    1.0000      1.0000    
L=2  Nsemic=0  Cnfigmx=3
          i=1  nzeta=0  polorb=0  (3d)  (perturbative polarization orbital) (from 2p)
-------------------------------------------------------------------------------
L=0  Nkbl=1  erefs: 0.17977+309
L=1  Nkbl=1  erefs: 0.17977+309
===============================================================================
</basis_specs>

<pseudopotential_header>
 C  ps nrl pcec
 ONCVPSP-3.2018-03-01Hamann's oncvpsp                        
 2s 2.00  r= 1.20/2p 2.00  r= 1.26/                                     2s:2p:
</pseudopotential_header>
</preamble>
C                             # Symbol
C                             # Label
    6                         # Atomic number
     4.00000000000                             # Valence charge
     12.0110000000        # Mass 
     20.7517672127        # Self energy 
   2   5                      # Lmax for basis, no. of nl orbitals 
   1   4                      # Lmax for projectors, no. of nl KB projectors
# PAOs:__________________________
  0  2  1  0  2.000000   #orbital l, n, z, is_polarized, population
 500    0.9736901584049848E-02     4.858713890440874     # npts, delta, cutoff
     0.000000000000000        0.3653347336620878    
    0.9736901584049848E-02    0.3655308213053099    
    0.1947380316809970E-01    0.3661259868419032    
    0.2921070475214954E-01    0.3671166239107979    
    0.3894760633619939E-01    0.3685007749322062    
    0.4868450792024924E-01    0.3702757075917056    
    0.5842140950429908E-01    0.3724379219346340    
    0.6815831108834894E-01    0.3749831599133575    
    0.7789521267239878E-01    0.3779064170372241    
    0.8763211425644862E-01    0.3812019560450163    
    0.9736901584049848E-01    0.3848633225398868    
    0.1071059174245483        0.3888833625244381    
    0.1168428190085982        0.3932542417678621    
    0.1265797205926480        0.3979674669307853    
    0.1363166221766979        0.4030139083673688    
    0.1460535237607477        0.4083838245184361    
    0.1557904253447976        0.4140668878040958    
    0.1655273269288474        0.4200522119194571    
    0.1752642285128972        0.4263283804326942    
    0.1850011300969471        0.4328834765808662    
    0.1947380316809970        0.4397051141556085    
    0.2044749332650468        0.4467804693680503    
    0.2142118348490966        0.4540963135801053    
    0.2239487364331465        0.4616390467876183    
    0.2336856380171963        0.4693947317397565    
    0.2434225396012462        0.4773491285784489    
    0.2531594411852960        0.4854877298816717    
    0.2628963427693459        0.4937957959948494    
    0.2726332443533958        0.5022583905356639    
    0.2823701459374456        0.5108604159590344    
    0.2921070475214954        0.5195866490710039    
    0.3018439491055453        0.5284217763826634    
    0.3115808506895951        0.5373504291980715    
    0.3213177522736450        0.5463572183333348    
    0.3310546538576948        0.5554267683675909    
    0.3407915554417447        0.5645437513305345    
    0.3505284570257945        0.5736929197353280    
    0.3602653586098444        0.5828591388702059    
    0.3700022601938942        0.5920274182667695    
    0.3797391617779440        0.6011829422678646    
    0.3894760633619939        0.6103110996229871    
    0.3992129649460437        0.6193975120443390    
    0.4089498665300936        0.6284280616619493    
    0.4186867681141435        0.6373889173215923    
    0.4284236696981933        0.6462665596746490    
    0.4381605712822431        0.6550478050143822    
    0.4478974728662930        0.6637198278185152    
    0.4576343744503428        0.6722701819632416    
    0.4673712760343927        0.6806868205790664    
    0.4771081776184425        0.6889581145239938    
    0.4868450792024924        0.6970728694545517    
    0.4965819807865423        0.7050203414800910    
    0.5063188823705921        0.7127902513904314    
    0.5160557839546419        0.7203727974515167    
    0.5257926855386917        0.7277586667681341    
    0.5355295871227416        0.7349390452168861    
    0.5452664887067915        0.7419056259566373    
    0.5550033902908413        0.7486506165274084    
    0.5647402918748912        0.7551667445523123    
    0.5744771934589410        0.7614472620604953    
    0.5842140950429908        0.7674859484521906    
    0.5939509966270407        0.7732771121300268    
    0.6036878982110906        0.7788155908234884    
    0.6134247997951404        0.7840967506359898    
    0.6231617013791902        0.7891164838464837    
    0.6328986029632401        0.7938712054996805    
    0.6426355045472899        0.7983578488211152    
    0.6523724061313398        0.8025738594950538    
    0.6621093077153897        0.8065171888451373    
    0.6718462092994395        0.8101862859591119    
    0.6815831108834893        0.8135800888005988    
    0.6913200124675392        0.8166980143520876    
    0.7010569140515890        0.8195399478346664    
    0.7107938156356389        0.8221062310510432    
    0.7205307172196888        0.8243976498995386    
    0.7302676188037386        0.8264154211075267    
    0.7400045203877884        0.8281611782338282    
    0.7497414219718382        0.8296369569901569    
    0.7594783235558881        0.8308451799325597    
    0.7692152251399380        0.8317886405742870    
    0.7789521267239878        0.8324704869722291    
    0.7886890283080377        0.8328942048393766    
    0.7984259298920875        0.8330636002363112    
    0.8081628314761373        0.8329827818950246    
    0.8178997330601872        0.8326561432286177    
    0.8276366346442371        0.8320883440806881    
    0.8373735362282869        0.8312842922682814    
    0.8471104378123367        0.8302491249723374    
    0.8568473393963866        0.8289881900295429    
    0.8665842409804364        0.8275070271792943    
    0.8763211425644862        0.8258113493192731    
    0.8860580441485362        0.8239070238227799    
    0.8957949457325860        0.8218000539704582    
    0.9055318473166358        0.8194965605485307    
    0.9152687489006857        0.8170027636648585    
    0.9250056504847355        0.8143249648333415    
    0.9347425520687853        0.8114695293761667    
    0.9444794536528353        0.8084428691922994    
    0.9542163552368851        0.8052514259392398    
    0.9639532568209349        0.8019016546737390    
    0.9736901584049847        0.7984000079954761    
    0.9834270599890346        0.7947529207359851    
    0.9931639615730845        0.7909667952331896    
     1.002900863157134        0.7870479883269691    
     1.012637764741184        0.7830027956171663    
     1.022374666325234        0.7788374389930466    
     1.032111567909284        0.7745580565679645    
     1.041848469493334        0.7701706903767805    
     1.051585371077383        0.7656812758844606    
     1.061322272661433        0.7610956322961117    
     1.071059174245483        0.7564194536881028    
     1.080796075829533        0.7516583009767439    
     1.090532977413583        0.7468175947377467    
     1.100269878997633        0.7419026088863756    
     1.110006780581683        0.7369184652246845    
     1.119743682165733        0.7318701288589932    
     1.129480583749782        0.7267624044871723    
     1.139217485333832        0.7215999335517447    
     1.148954386917882        0.7163871922515894    
     1.158691288501932        0.7111284904012427    
     1.168428190085982        0.7058279711214229    
     1.178165091670031        0.7004896113387893    
     1.187901993254081        0.6951172231882805    
     1.197638894838131        0.6897144558906046    
     1.207375796422181        0.6842847983870207    
     1.217112698006231        0.6788315851529504    
     1.226849599590281        0.6733580048062815    
     1.236586501174331        0.6678671090315687    
     1.246323402758380        0.6623618182760136    
     1.256060304342430        0.6568449259350267    
     1.265797205926480        0.6513191032479286    
     1.275534107510530        0.6457869038862656    
     1.285271009094580        0.6402507683542499    
     1.295007910678630        0.6347130279095085    
     1.304744812262680        0.6291759086917690    
     1.314481713846730        0.6236415357318321    
     1.324218615430779        0.6181119368032435    
     1.333955517014829        0.6125890460534298    
     1.343692418598879        0.6070747073494744    
     1.353429320182929        0.6015706777372479    
     1.363166221766979        0.5960786307299983    
     1.372903123351028        0.5906001594267523    
     1.382640024935078        0.5851367795412116    
     1.392376926519128        0.5796899323295880    
     1.402113828103178        0.5742609874092860    
     1.411850729687228        0.5688512454763941    
     1.421587631271278        0.5634619409269840    
     1.431324532855328        0.5580942443847636    
     1.441061434439378        0.5527492651384019    
     1.450798336023427        0.5474280534918405    
     1.460535237607477        0.5421316030306068    
     1.470272139191527        0.5368608528071228    
     1.480009040775577        0.5316166894478492    
     1.489745942359627        0.5263999491850234    
     1.499482843943676        0.5212114198156256    
     1.509219745527726        0.5160518425901807    
     1.518956647111776        0.5109219140337637    
     1.528693548695826        0.5058222877018030    
     1.538430450279876        0.5007535758726009    
     1.548167351863926        0.4957163511792794    
     1.557904253447976        0.4907111481827131    
     1.567641155032026        0.4857384648881761    
     1.577378056616075        0.4807987642069398    
     1.587114958200125        0.4758924753654922    
     1.596851859784175        0.4710199952635565    
     1.606588761368225        0.4661816897833132    
     1.616325662952275        0.4613778950509212    
     1.626062564536324        0.4566089186526062    
     1.635799466120374        0.4518750408064025    
     1.645536367704424        0.4471765154915719    
     1.655273269288474        0.4425135715367010    
     1.665010170872524        0.4378864136684297    
     1.674747072456574        0.4332952235216957    
     1.684483974040624        0.4287401606133684    
     1.694220875624673        0.4242213632799953    
     1.703957777208723        0.4197389495815395    
     1.713694678792773        0.4152930181716394    
     1.723431580376823        0.4108836491362834    
     1.733168481960873        0.4065109048012632    
     1.742905383544923        0.4021748305102879    
     1.752642285128972        0.3978754553739964    
     1.762379186713023        0.3936127929916493    
     1.772116088297072        0.3893868421458152    
     1.781852989881122        0.3851975874715325    
     1.791589891465172        0.3810450001004536    
     1.801326793049222        0.3769290382810894    
     1.811063694633272        0.3728496479759218    
     1.820800596217321        0.3688067634362003    
     1.830537497801371        0.3648003077552369    
     1.840274399385421        0.3608301934009301    
     1.850011300969471        0.3568963227282284    
     1.859748202553521        0.3529985884724156    
     1.869485104137571        0.3491368742235800    
     1.879222005721621        0.3453110548833522    
     1.888958907305671        0.3415209971040856    
     1.898695808889720        0.3377665597115100    
     1.908432710473770        0.3340475941111872    
     1.918169612057820        0.3303639446793813    
     1.927906513641870        0.3267154491391405    
     1.937643415225920        0.3231019389215978    
     1.947380316809969        0.3195232395137300    
     1.957117218394019        0.3159791707923130    
     1.966854119978069        0.3124695473451584    
     1.976591021562119        0.3089941787797947    
     1.986327923146169        0.3055528700199742    
     1.996064824730219        0.3021454215908370    
     2.005801726314269        0.2987716298925300    
     2.015538627898319        0.2954312874633366    
     2.025275529482368        0.2921241832322125    
     2.035012431066418        0.2888501027612966    
     2.044749332650468        0.2856088284788746    
     2.054486234234518        0.2824001399028089    
     2.064223135818568        0.2792238138551764    
     2.073960037402617        0.2760796246681184    
     2.083696938986667        0.2729673443813548    
     2.093433840570717        0.2698867429316831    
     2.103170742154767        0.2668375883346715    
     2.112907643738817        0.2638196468588898    
     2.122644545322867        0.2608326831929304    
     2.132381446906916        0.2578764606054909    
     2.142118348490966        0.2549507410987175    
     2.151855250075016        0.2520552855551805    
     2.161592151659066        0.2491898538785504    
     2.171329053243116        0.2463542051282941    
     2.181065954827166        0.2435480976486899    
     2.190802856411216        0.2407712891921356    
     2.200539757995266        0.2380235370372268    
     2.210276659579316        0.2353045981016497    
     2.220013561163365        0.2326142290500144    
     2.229750462747415        0.2299521863970488    
     2.239487364331465        0.2273182266060691    
     2.249224265915515        0.2247121061830238    
     2.258961167499565        0.2221335817663674    
     2.268698069083614        0.2195824102126723    
     2.278434970667664        0.2170583486783644    
     2.288171872251714        0.2145611546976545    
     2.297908773835764        0.2120905862567402    
     2.307645675419814        0.2096464018645197    
     2.317382577003864        0.2072283606198946    
     2.327119478587913        0.2048362222757954    
     2.336856380171963        0.2024697473000494    
     2.346593281756013        0.2001286969332332    
     2.356330183340063        0.1978128332436319    
     2.366067084924113        0.1955219191793209    
     2.375803986508163        0.1932557186176369    
     2.385540888092213        0.1910139964120410    
     2.395277789676263        0.1887965184363962    
     2.405014691260313        0.1866030516269786    
     2.414751592844362        0.1844333640221515    
     2.424488494428412        0.1822872247996991    
     2.434225396012462        0.1801644043122261    
     2.443962297596512        0.1780646741204307    
     2.453699199180562        0.1759878070243171    
     2.463436100764612        0.1739335770926806    
     2.473173002348661        0.1719017596906930    
     2.482909903932711        0.1698921315056417    
     2.492646805516761        0.1679044705713509    
     2.502383707100811        0.1659385562909146    
     2.512120608684861        0.1639941694577054    
     2.521857510268910        0.1620710922745504    
     2.531594411852960        0.1601691083720722    
     2.541331313437010        0.1582880028227462    
     2.551068215021060        0.1564275621595214    
     2.560805116605110        0.1545875743874970    
     2.570542018189160        0.1527678290099595    
     2.580278919773209        0.1509681170307168    
     2.590015821357259        0.1491882309677066    
     2.599752722941309        0.1474279648442623    
     2.609489624525359        0.1456871142048494    
     2.619226526109409        0.1439654761366511    
     2.628963427693459        0.1422628492588145    
     2.638700329277509        0.1405790337571661    
     2.648437230861559        0.1389138313817864    
     2.658174132445609        0.1372670454370537    
     2.667911034029658        0.1356384807856744    
     2.677647935613708        0.1340279438528303    
     2.687384837197758        0.1324352426297621    
     2.697121738781808        0.1308601866766891    
     2.706858640365858        0.1293025871239216    
     2.716595541949907        0.1277622566720684    
     2.726332443533957        0.1262390095914577    
     2.736069345118007        0.1247326617210937    
     2.745806246702057        0.1232430304671419    
     2.755543148286107        0.1217699348008182    
     2.765280049870157        0.1203131952558386    
     2.775016951454206        0.1188726339255287    
     2.784753853038256        0.1174480744595054    
     2.794490754622306        0.1160393420599619    
     2.804227656206356        0.1146462634774975    
     2.813964557790406        0.1132686670065699    
     2.823701459374456        0.1119063824805892    
     2.833438360958506        0.1105592412666831    
     2.843175262542556        0.1092270762601483    
     2.852912164126606        0.1079097218785940    
     2.862649065710655        0.1066070140557952    
     2.872385967294705        0.1053187902352777    
     2.882122868878755        0.1040448893636428    
     2.891859770462805        0.1027851518836482    
     2.901596672046855        0.1015394197270588    
     2.911333573630905        0.1003075363072814    
     2.921070475214954        0.9908934651179380E-01
     2.930807376799004        0.9788469669438063E-01
     2.940544278383054        0.9669343466718679E-01
     2.950281179967104        0.9551540969260279E-01
     2.960018081551154        0.9435047247498665E-01
     2.969754983135203        0.9319847515223767E-01
     2.979491884719253        0.9205927128722780E-01
     2.989228786303303        0.9093271585910180E-01
     2.998965687887353        0.8981866525445525E-01
     3.008702589471403        0.8871697725839624E-01
     3.018439491055453        0.8762751104550144E-01
     3.028176392639502        0.8655012717067283E-01
     3.037913294223552        0.8548468755990303E-01
     3.047650195807602        0.8443105550095548E-01
     3.057387097391652        0.8338909563396554E-01
     3.067123998975702        0.8235867394197144E-01
     3.076860900559752        0.8133965774137909E-01
     3.086597802143802        0.8033191567236581E-01
     3.096334703727852        0.7933531768923133E-01
     3.106071605311902        0.7834973505069895E-01
     3.115808506895951        0.7737504031017312E-01
     3.125545408480001        0.7641110730595729E-01
     3.135282310064051        0.7545781115143792E-01
     3.145019211648101        0.7451502822523842E-01
     3.154756113232151        0.7358263616134716E-01
     3.164493014816200        0.7266051383922276E-01
     3.174229916400250        0.7174854137388346E-01
     3.183966817984300        0.7084660010598018E-01
     3.193703719568350        0.6995457259185973E-01
     3.203440621152400        0.6907234259362101E-01
     3.213177522736450        0.6819979506916640E-01
     3.222914424320499        0.6733681616225172E-01
     3.232651325904549        0.6648329319253893E-01
     3.242388227488599        0.6563911464565288E-01
     3.252125129072649        0.6480417016324508E-01
     3.261862030656699        0.6397835053306732E-01
     3.271598932240749        0.6316154767905821E-01
     3.281335833824798        0.6235365465144332E-01
     3.291072735408849        0.6155456561685316E-01
     3.300809636992899        0.6076417584845838E-01
     3.310546538576948        0.5998238171612728E-01
     3.320283440160998        0.5920908067660660E-01
     3.330020341745048        0.5844417126372567E-01
     3.339757243329098        0.5768755307862633E-01
     3.349494144913148        0.5693912678002400E-01
     3.359231046497198        0.5619879407449608E-01
     3.368967948081247        0.5546645770680279E-01
     3.378704849665297        0.5474202145023864E-01
     3.388441751249347        0.5402539009702138E-01
     3.398178652833397        0.5331646944871461E-01
     3.407915554417447        0.5261516630668800E-01
     3.417652456001496        0.5192138846261241E-01
     3.427389357585546        0.5123504468899950E-01
     3.437126259169596        0.5055604472977767E-01
     3.446863160753646        0.4988429929091181E-01
     3.456600062337696        0.4921972003106230E-01
     3.466336963921746        0.4856221955228995E-01
     3.476073865505795        0.4791171139080537E-01
     3.485810767089845        0.4726811000776301E-01
     3.495547668673895        0.4663133078009998E-01
     3.505284570257945        0.4600128999142108E-01
     3.515021471841995        0.4537790482293562E-01
     3.524758373426045        0.4476109334443937E-01
     3.534495275010095        0.4415077450534621E-01
     3.544232176594145        0.4354686812576555E-01
     3.553969078178195        0.4294929488763756E-01
     3.563705979762244        0.4235797632591417E-01
     3.573442881346294        0.4177283481979362E-01
     3.583179782930344        0.4119379358400171E-01
     3.592916684514394        0.4062077666013251E-01
     3.602653586098444        0.4005370890803880E-01
     3.612390487682493        0.3949251599727692E-01
     3.622127389266543        0.3893712439860252E-01
     3.631864290850593        0.3838746137552023E-01
     3.641601192434643        0.3784345497589435E-01
     3.651338094018693        0.3730503402360748E-01
     3.661074995602743        0.3677212811027928E-01
     3.670811897186792        0.3624466758703167E-01
     3.680548798770842        0.3572258355632112E-01
     3.690285700354892        0.3520580786382121E-01
     3.700022601938942        0.3469427309036291E-01
     3.709759503522992        0.3418791254392777E-01
     3.719496405107042        0.3368666025169877E-01
     3.729233306691091        0.3319045095217348E-01
     3.738970208275141        0.3269922008732790E-01
     3.748707109859192        0.3221290379484246E-01
     3.758444011443241        0.3173143890037378E-01
     3.768180913027291        0.3125476290989861E-01
     3.777917814611341        0.3078281400210748E-01
     3.787654716195391        0.3031553102085658E-01
     3.797391617779441        0.2985285346767748E-01
     3.807128519363491        0.2939472149433807E-01
     3.816865420947540        0.2894107589547377E-01
     3.826602322531590        0.2849185810126693E-01
     3.836339224115640        0.2804701017018784E-01
     3.846076125699690        0.2760647478178618E-01
     3.855813027283740        0.2717019522954666E-01
     3.865549928867789        0.2673811541380271E-01
     3.875286830451839        0.2631017983470366E-01
     3.885023732035889        0.2588633358524306E-01
     3.894760633619939        0.2546652234433298E-01
     3.904497535203989        0.2505069236995044E-01
     3.914234436788039        0.2463879049233367E-01
     3.923971338372088        0.2423076410723438E-01
     3.933708239956138        0.2382656116922973E-01
     3.943445141540188        0.2342613018508042E-01
     3.953182043124238        0.2302942020716153E-01
     3.962918944708288        0.2263638082693895E-01
     3.972655846292338        0.2224696216850450E-01
     3.982392747876388        0.2186111488216632E-01
     3.992129649460438        0.2147879013808838E-01
     4.001866551044487        0.2109993961999946E-01
     4.011603452628537        0.2072451551894684E-01
     4.021340354212587        0.2035247052710873E-01
     4.031077255796637        0.1998375783165771E-01
     4.040814157380686        0.1961833110867812E-01
     4.050551058964737        0.1925614451714548E-01
     4.060287960548786        0.1889715269295344E-01
     4.070024862132836        0.1854131074299621E-01
     4.079761763716887        0.1818857423930147E-01
     4.089498665300936        0.1783889921321595E-01
     4.099235566884986        0.1749224214965169E-01
     4.108972468469036        0.1714855998137787E-01
     4.118709370053086        0.1680781008336696E-01
     4.128446271637135        0.1646995026719090E-01
     4.138183173221186        0.1613493877546616E-01
     4.147920074805235        0.1580273427636049E-01
     4.157656976389285        0.1547329585814203E-01
     4.167393877973335        0.1514658302378166E-01
     4.177130779557385        0.1482255568560427E-01
     4.186867681141434        0.1450117415998629E-01
     4.196604582725485        0.1418239916211379E-01
     4.206341484309534        0.1386619180078116E-01
     4.216078385893584        0.1355251357324097E-01
     4.225815287477634        0.1324132636010392E-01
     4.235552189061684        0.1293259242027703E-01
     4.245289090645733        0.1262627438596714E-01
     4.255025992229784        0.1232233525771956E-01
     4.264762893813833        0.1202073839950694E-01
     4.274499795397883        0.1172144753386747E-01
     4.284236696981933        0.1142442673707782E-01
     4.293973598565983        0.1112964043439013E-01
     4.303710500150032        0.1083705339530252E-01
     4.313447401734082        0.1054663072887813E-01
     4.323184303318133        0.1025833787911084E-01
     4.332921204902182        0.9972140620327035E-02
     4.342658106486232        0.9688005052641958E-02
     4.352395008070282        0.9405897597456192E-02
     4.362131909654332        0.9125784992994252E-02
     4.371868811238381        0.8847634289887133E-02
     4.381605712822432        0.8571412846795686E-02
     4.391342614406481        0.8297088326074896E-02
     4.401079515990531        0.8024628689546048E-02
     4.410816417574581        0.7754002205757611E-02
     4.420553319158631        0.7485177745088468E-02
     4.430290220742680        0.7218126962933993E-02
     4.440027122326731        0.6952831073460872E-02
     4.449764023910780        0.6689292477532981E-02
     4.459500925494830        0.6427547952894775E-02
     4.469237827078880        0.6167679474747784E-02
     4.478974728662930        0.5909820414011513E-02
     4.488711630246979        0.5654156747554856E-02
     4.498448531831030        0.5400924060301468E-02
     4.508185433415079        0.5150401536848688E-02
     4.517922334999129        0.4902904120692114E-02
     4.527659236583179        0.4658773810652255E-02
     4.537396138167229        0.4418370812155479E-02
     4.547133039751279        0.4182065032747223E-02
     4.556869941335329        0.3950228228978100E-02
     4.566606842919379        0.3723226976668384E-02
     4.576343744503428        0.3501416541500046E-02
     4.586080646087479        0.3285135662884506E-02
     4.595817547671528        0.3074702222912089E-02
     4.605554449255578        0.2870409747245665E-02
     4.615291350839628        0.2672524671027420E-02
     4.625028252423678        0.2481284296541295E-02
     4.634765154007727        0.2296895367938109E-02
     4.644502055591778        0.2119533189931294E-02
     4.654238957175827        0.1949341220793156E-02
     4.663975858759877        0.1786431074370094E-02
     4.673712760343927        0.1630882870600064E-02
     4.683449661927977        0.1482745878781813E-02
     4.693186563512026        0.1342039402316100E-02
     4.702923465096077        0.1208753857568504E-02
     4.712660366680126        0.1082852002666385E-02
     4.722397268264176        0.9642702741250265E-03
     4.732134169848226        0.8529201897289346E-03
     4.741871071432276        0.7486897743063097E-03
     4.751607973016325        0.6514449595240859E-03
     4.761344874600375        0.5610308969950228E-03
     4.771081776184426        0.4772731007525655E-03
     4.780818677768475        0.3999782900376451E-03
     4.790555579352525        0.3289347134342570E-03
     4.800292480936575        0.2639115465230860E-03
     4.810029382520625        0.2046565267057710E-03
     4.819766284104674        0.1508899079432260E-03
     4.829503185688725        0.1022896570747285E-03
     4.839240087272774        0.5845180321716409E-04
     4.848976988856824        0.1874524854079462E-04
     4.858713890440874         0.000000000000000    
  0  2  2  0  0.000000   #orbital l, n, z, is_polarized, population
 500    0.6326939209093247E-02     3.157142665337530     # npts, delta, cutoff
     0.000000000000000        0.2352801826349301    
    0.6326939209093247E-02    0.2354159903025956    
    0.1265387841818649E-01    0.2358353716863131    
    0.1898081762727974E-01    0.2365339586692853    
    0.2530775683637299E-01    0.2375111707733731    
    0.3163469604546624E-01    0.2387661981849805    
    0.3796163525455949E-01    0.2402980016336481    
    0.4428857446365273E-01    0.2421053134476904    
    0.5061551367274598E-01    0.2441866389879357    
    0.5694245288183922E-01    0.2465402583685661    
    0.6326939209093248E-01    0.2491642284444956    
    0.6959633130002572E-01    0.2520563850571682    
    0.7592327050911897E-01    0.2552143455334695    
    0.8225020971821222E-01    0.2586355114330248    
    0.8857714892730546E-01    0.2623170715391256    
    0.9490408813639871E-01    0.2662560050882712    
    0.1012310273454920        0.2704490852330074    
    0.1075579665545852        0.2748928827324099    
    0.1138849057636784        0.2795837698642287    
    0.1202118449727717        0.2845179245523749    
    0.1265387841818650        0.2896913347031255    
    0.1328657233909582        0.2950998027431163    