Siesta Version  : NO_VERSION_LABEL_AVAILABLE
Architecture    : ----
Compiler version: GNU-11.4.0
Compiler flags  : -fallow-argument-mismatch;-O3 -march=native
PP flags        : ----
Libraries       : ----
Parallelisations: MPI

Runtime information:
* Directory : /home/ICN2/jgarridoa/aiida_run/c3/c9/9560-4c82-40b2-b5c1-8def9e31c68f
* Running on 24 nodes in parallel.
>> Start of run:  15-APR-2024  11:03:15

                           *********************** 
                           *  WELCOME TO SIESTA  * 
                           *********************** 

reinit: Reading from standard input
reinit: Dumping input in INPUT_TMP.30087
************************** Dump of input data file ****************************
atomiccoordinatesformat Ang
cdfsave True
dminitspinaf False
dmmixingweight 0.025
dmmixscf1 True
dmnumberpulay 10
dmtolerance 1e-05
electronictemperature 50.000 K
geometrymustconverge T
latticeconstant 1.0 Ang
maxscfiterations 1000
meshcutoff 400 Ry
noncollinearspin False
numberofatoms 3
numberofspecies 2
savehs True
solutionmethod diagon
spinorbit False
spinpolarized False
systemlabel aiida
systemname aiida
usetreetimer T
writedmhsnetcdf True
writeorbmom True
xcauthors PBEsol
xcfunctional GGA
xmlwrite T
#
# -- Basis Set Info follows
#
PAO-BasisSize DZP
PAO-SplitNorm 0.15
PAO-EnergyShift 0.005 Ry
#
# -- Structural Info follows
#
%block chemicalspecieslabel
    1     7      N
    2     6      C
%endblock chemicalspecieslabel
%block lattice-vectors
      3.5999900000       0.0000000000       0.0000000000
      0.0000000000       3.5999900000       0.0000000000
      0.0000000000       0.0000000000       3.5999900000
%endblock lattice-vectors
%block atomiccoordinatesandatomicspecies
      2.9851477079       0.6391782245       0.0000000000    1      N      1
      3.4347504590       1.9665305374       0.9718893003    1      N      2
      3.5413101630       3.3294867514       1.1171128969    2      C      3
%endblock atomiccoordinatesandatomicspecies
#
# -- K-points Info follows
#
%block kgrid_monkhorst_pack
    10      0      0       0.0000000000
     0     10      0       0.0000000000
     0      0     10       0.0000000000
%endblock kgrid_monkhorst_pack
#
# -- Max wall-clock time block
#
maxwalltime 7200000
************************** End of input data file *****************************

reinit: -----------------------------------------------------------------------
reinit: System Name: aiida
reinit: -----------------------------------------------------------------------
reinit: System Label: aiida
reinit: -----------------------------------------------------------------------

initatom: Reading input for the pseudopotentials and atomic orbitals ----------
Species number:   1 Atomic number:    7 Label: N
Species number:   2 Atomic number:    6 Label: C


---- Processing specs for species: N
Ground state valence configuration:   2s02  2p03
Reading pseudopotential information in PSML from:
  N.psml
PSML file version: 1.1
Using libxc ids:  116 133
GGA--PBEsol XC_GGA_X_PBE_SOL--XC_GGA_C_PBE_SOL ps
PSML uuid: 56b43770-1d5f-11e8-525f-e1e3c77dc801

---- Processing specs for species: C
Ground state valence configuration:   2s02  2p02
Reading pseudopotential information in PSML from:
  C.psml
PSML file version: 1.1
Using libxc ids:  116 133
GGA--PBEsol XC_GGA_X_PBE_SOL--XC_GGA_C_PBE_SOL ps
PSML uuid: 51a02af0-1d5f-11e8-49c3-12b9ebd99919

---- Pseudopotential check for N 

Pseudized shells:
2s( 2.00) rc: 1.21
2p( 3.00) rc: 1.36
Valence configuration for ps generation: 2s:2p: Total charge:   5.000000

---- Pseudopotential check for C 

Pseudized shells:
2s( 2.00) rc: 1.20
2p( 2.00) rc: 1.26
Valence configuration for ps generation: 2s:2p: Total charge:   4.000000
For N, standard SIESTA heuristics set lmxkb to 3
 (one more than the basis l, including polarization orbitals).
Use PS.lmax or PS.KBprojectors blocks to override.
For C, standard SIESTA heuristics set lmxkb to 3
 (one more than the basis l, including polarization orbitals).
Use PS.lmax or PS.KBprojectors blocks to override.
N pseudopotential only contains V_ls up to l=1 -- lmxkb reset.
C pseudopotential only contains V_ls up to l=1 -- lmxkb reset.

<basis_specs>
===============================================================================
N                    Z=   7    Mass=  14.007        Charge= 0.17977+309
Lmxo=2 Lmxkb= 1    BasisType=split      Semic=F
L=0  Nsemic=0  Cnfigmx=2
          i=1  nzeta=2  polorb=0  (2s)
            splnorm:   0.15000    
               vcte:    40.000    
               rinn:  -0.90000    
               qcoe:    0.0000    
               qyuk:    0.0000    
               qwid:   0.10000E-01
                rcs:    0.0000      0.0000    
            lambdas:    1.0000      1.0000    
L=1  Nsemic=0  Cnfigmx=2
          i=1  nzeta=2  polorb=1  (2p)  (to be polarized perturbatively)
            splnorm:   0.15000    
               vcte:    40.000    
               rinn:  -0.90000    
               qcoe:    0.0000    
               qyuk:    0.0000    
               qwid:   0.10000E-01
                rcs:    0.0000      0.0000    
            lambdas:    1.0000      1.0000    
L=2  Nsemic=0  Cnfigmx=3
          i=1  nzeta=0  polorb=0  (3d)  (perturbative polarization orbital) (from 2p)
-------------------------------------------------------------------------------
L=0  Nkbl=1  erefs: 0.17977+309
L=1  Nkbl=1  erefs: 0.17977+309
===============================================================================
</basis_specs>

Using PAO.SplitTailNorm
atom: Called for N                     (Z =   7)
NOTE: N pseudopotential has channels up to l= 1
NOTE: PAOs with higher l will be generated with V_local
Maximum radius (at nrval) set to   50.00000 8518

read_vps: Pseudopotential generation method:
read_vps: ONCVPSP-3.Hamann's oncvpsp                        
Valence charge in pseudo generation:    5.00000

read_vps: Pseudopotential includes a core correction:
read_vps: Pseudo-core for xc-correction

xc_check: Exchange-correlation functional:
xc_check: GGA PBEsol
Got Vlocal (oncv-fit) from psml data
Choosing vlocal chloc cutoff:  6.038618
qtot up to nchloc:    4.99997633
atom: Maximum radius for chlocal:    6.03862
atom: Maximum radius for r*vlocal+2*Zval:    6.03862
Reading KB projs from N psml data
Using scalar-relativistic projectors in PSML file

PSML: Kleinman-Bylander projectors: 
   l= 0   rc=  1.214864   Ekb= 14.928379
   l= 0   rc=  1.221004   Ekb=  1.251736
   l= 1   rc=  1.375180   Ekb= -8.619428
   l= 1   rc=  1.375180   Ekb= -2.025883

PSML: Total number of  Kleinman-Bylander projectors:   8
atom: -------------------------------------------------------------------------

atom: SANKEY-TYPE ORBITALS:
atom: Selected multiple-zeta basis: split     

SPLIT: Orbitals with angular momentum L= 0

SPLIT: Basis orbitals for state 2s

SPLIT: PAO cut-off radius determined from an
SPLIT: energy shift=  0.005000 Ry
Split based on tail norm

   izeta = 1
                 lambda =    1.000000
                     rc =    4.265195
                 energy =   -1.350827
                kinetic =    1.238925
    potential(screened) =   -2.589752
       potential(ionic) =   -8.091187

   izeta = 2
                 rmatch =    2.696970
              splitnorm =    0.150000
                 energy =   -1.041987
                kinetic =    2.172223
    potential(screened) =   -3.214210
       potential(ionic) =   -9.191634

SPLIT: Orbitals with angular momentum L= 1

SPLIT: Basis orbitals for state 2p

SPLIT: PAO cut-off radius determined from an
SPLIT: energy shift=  0.005000 Ry
Split based on tail norm

   izeta = 1
                 lambda =    1.000000
                     rc =    5.253677
                 energy =   -0.511511
                kinetic =    3.468518
    potential(screened) =   -3.980029
       potential(ionic) =   -9.293867

   izeta = 2
                 rmatch =    3.312873
              splitnorm =    0.150000
                 energy =   -0.376057
                kinetic =    4.835938
    potential(screened) =   -5.211995
       potential(ionic) =  -11.044105
*Note: V_local used for l= 2

** Using vlocal for PAOs with L= 2

POLgen: Perturbative polarization orbital with L=  2

POLgen: Polarization orbital for state 2p
*Note: V_local used for lpol= 2

** Using vlocal for PAOs with L= 2
Split based on tail norm

   izeta = 1
                     rc =    5.253677
                 energy =    1.558482
                kinetic =    2.921564
    potential(screened) =   -1.363082
       potential(ionic) =   -5.578203
atom: Total number of Sankey-type orbitals: 13

atm_pop: Valence configuration (for local Pseudopot. screening):
 2s( 2.00)                                                            
 2p( 3.00)                                                            
 3d( 0.00)                                                            
Vna: chval, zval:    5.00000   5.00000

Vna:  Cut-off radius for the neutral-atom potential:   5.253677
comcore: Pseudo-core radius Rcore=  1.572221

atom: _________________________________________________________________________

<basis_specs>
===============================================================================
C                    Z=   6    Mass=  12.011        Charge= 0.17977+309
Lmxo=2 Lmxkb= 1    BasisType=split      Semic=F
L=0  Nsemic=0  Cnfigmx=2
          i=1  nzeta=2  polorb=0  (2s)
            splnorm:   0.15000    
               vcte:    40.000    
               rinn:  -0.90000    
               qcoe:    0.0000    
               qyuk:    0.0000    
               qwid:   0.10000E-01
                rcs:    0.0000      0.0000    
            lambdas:    1.0000      1.0000    
L=1  Nsemic=0  Cnfigmx=2
          i=1  nzeta=2  polorb=1  (2p)  (to be polarized perturbatively)
            splnorm:   0.15000    
               vcte:    40.000    
               rinn:  -0.90000    
               qcoe:    0.0000    
               qyuk:    0.0000    
               qwid:   0.10000E-01
                rcs:    0.0000      0.0000    
            lambdas:    1.0000      1.0000    
L=2  Nsemic=0  Cnfigmx=3
          i=1  nzeta=0  polorb=0  (3d)  (perturbative polarization orbital) (from 2p)
-------------------------------------------------------------------------------
L=0  Nkbl=1  erefs: 0.17977+309
L=1  Nkbl=1  erefs: 0.17977+309
===============================================================================
</basis_specs>

Using PAO.SplitTailNorm
atom: Called for C                     (Z =   6)
NOTE: C pseudopotential has channels up to l= 1
NOTE: PAOs with higher l will be generated with V_local
Maximum radius (at nrval) set to   50.00000 8518

read_vps: Pseudopotential generation method:
read_vps: ONCVPSP-3.Hamann's oncvpsp                        
Valence charge in pseudo generation:    4.00000

read_vps: Pseudopotential includes a core correction:
read_vps: Pseudo-core for xc-correction

xc_check: Exchange-correlation functional:
xc_check: GGA PBEsol
Got Vlocal (oncv-fit) from psml data
Choosing vlocal chloc cutoff:  4.114026
qtot up to nchloc:    4.00001066
atom: Maximum radius for chlocal:    4.11403
atom: Maximum radius for r*vlocal+2*Zval:    4.11403
Reading KB projs from C psml data
Using scalar-relativistic projectors in PSML file

PSML: Kleinman-Bylander projectors: 
   l= 0   rc=  1.219773   Ekb= 12.937878
   l= 0   rc=  1.219773   Ekb=  0.780062
   l= 1   rc=  1.278952   Ekb= -8.359390
   l= 1   rc=  1.278952   Ekb= -1.756905

PSML: Total number of  Kleinman-Bylander projectors:   8
atom: -------------------------------------------------------------------------

atom: SANKEY-TYPE ORBITALS:
atom: Selected multiple-zeta basis: split     

SPLIT: Orbitals with angular momentum L= 0

SPLIT: Basis orbitals for state 2s

SPLIT: PAO cut-off radius determined from an
SPLIT: energy shift=  0.005000 Ry
Split based on tail norm

   izeta = 1
                 lambda =    1.000000
                     rc =    4.858714
                 energy =   -0.997375
                kinetic =    0.928233
    potential(screened) =   -1.925608
       potential(ionic) =   -5.470603

   izeta = 2
                 rmatch =    3.157143
              splitnorm =    0.150000
                 energy =   -0.747328
                kinetic =    1.689643
    potential(screened) =   -2.436971
       potential(ionic) =   -6.275825

SPLIT: Orbitals with angular momentum L= 1

SPLIT: Basis orbitals for state 2p

SPLIT: PAO cut-off radius determined from an
SPLIT: energy shift=  0.005000 Ry
Split based on tail norm

   izeta = 1
                 lambda =    1.000000
                     rc =    5.984425
                 energy =   -0.378962
                kinetic =    2.440834
    potential(screened) =   -2.819796
       potential(ionic) =   -6.224005

   izeta = 2
                 rmatch =    3.889428
              splitnorm =    0.150000
                 energy =   -0.273331
                kinetic =    3.469746
    potential(screened) =   -3.743077
       potential(ionic) =   -7.475055
*Note: V_local used for l= 2

** Using vlocal for PAOs with L= 2

POLgen: Perturbative polarization orbital with L=  2

POLgen: Polarization orbital for state 2p
*Note: V_local used for lpol= 2

** Using vlocal for PAOs with L= 2
Split based on tail norm

   izeta = 1
                     rc =    5.984425
                 energy =    1.076317
                kinetic =    2.134413
    potential(screened) =   -1.058097
       potential(ionic) =   -3.835567
atom: Total number of Sankey-type orbitals: 13

atm_pop: Valence configuration (for local Pseudopot. screening):
 2s( 2.00)                                                            
 2p( 2.00)                                                            
 3d( 0.00)                                                            
Vna: chval, zval:    4.00000   4.00000

Vna:  Cut-off radius for the neutral-atom potential:   5.984425
comcore: Pseudo-core radius Rcore=  1.671741

atom: _________________________________________________________________________

prinput: Basis input 

PAO.BasisType split     

%block ChemicalSpeciesLabel
    1    7 N                       # Species index, atomic number, species label
    2    6 C                       # Species index, atomic number, species label
%endblock ChemicalSpeciesLabel

%block PAO.Basis                 # Define Basis set
# WARNING: This information might be incomplete!
N                     2                    # Species label, number of l-shells
 n=2   0   2                         # n, l, Nzeta 
   4.265      2.697   
   1.000      1.000   
 n=2   1   2 P   1                   # n, l, Nzeta, Polarization, NzetaPol
   5.254      3.313   
   1.000      1.000   
C                     2                    # Species label, number of l-shells
 n=2   0   2                         # n, l, Nzeta 
   4.859      3.157   
   1.000      1.000   
 n=2   1   2 P   1                   # n, l, Nzeta, Polarization, NzetaPol
   5.984      3.889   
   1.000      1.000   
%endblock PAO.Basis

prinput: ----------------------------------------------------------------------

coor:   Atomic-coordinates input format  =     Cartesian coordinates
coor:                                          (in Angstroms)

siesta: Atomic coordinates (Bohr) and species
siesta:      5.64111   1.20787   0.00000  1        1
siesta:      6.49074   3.71620   1.83660  1        2
siesta:      6.69211   6.29182   2.11104  2        3

siesta: System type = bulk      

initatomlists: Number of atoms, orbitals, and projectors:      3    39    24

siesta: ******************** Simulation parameters ****************************
siesta:
siesta: The following are some of the parameters of the simulation.
siesta: A complete list of the parameters used, including default values,
siesta: can be found in file out.fdf
siesta:
redata: Spin configuration                          = none
redata: Number of spin components                   = 1
redata: Time-Reversal Symmetry                      = T
redata: Spin spiral                                 = F
redata: Long output                                 =   F
redata: Number of Atomic Species                    =        2
redata: Charge density info will appear in .RHO file
redata: Write Mulliken Pop.                         = NO
redata: Matel table size (NRTAB)                    =     1024
redata: Mesh Cutoff                                 =   400.0000 Ry
redata: Net charge of the system                    =     0.0000 |e|
redata: Min. number of SCF Iter                     =        0
redata: Max. number of SCF Iter                     =     1000
redata: SCF convergence failure will abort job
redata: SCF mix quantity                            = Hamiltonian
redata: Mix DM or H after convergence               =   F
redata: Recompute H after scf cycle                 =   F
redata: Mix DM in first SCF step                    =   T
redata: Write Pulay info on disk                    =   F
redata: New DM Occupancy tolerance                  = 0.000000000001
redata: No kicks to SCF
redata: DM Mixing Weight for Kicks                  =     0.5000
redata: Require Harris convergence for SCF          =   F
redata: Harris energy tolerance for SCF             =     0.000100 eV
redata: Require DM convergence for SCF              =   T
redata: DM tolerance for SCF                        =     0.000010
redata: Require EDM convergence for SCF             =   F
redata: EDM tolerance for SCF                       =     0.001000 eV
redata: Require H convergence for SCF               =   T
redata: Hamiltonian tolerance for SCF               =     0.001000 eV
redata: Require (free) Energy convergence for SCF   =   F
redata: (free) Energy tolerance for SCF             =     0.000100 eV
redata: Using DFT-D3 dispersion                     =   F
redata: Using Saved Data (generic)                  =   F
redata: Use continuation files for DM               =   T
redata: Neglect nonoverlap interactions             =   F
redata: Method of Calculation                       = Diagonalization
redata: Electronic Temperature                      =    50.0000 K
redata: Fix the spin of the system                  =   F
redata: Max. number of TDED Iter                    =        1
redata: Number of TDED substeps                     =        3
redata: Dynamics option                             = Single-point calculation
mix.SCF: Pulay mixing                            = Pulay
mix.SCF:    Variant                              = stable
mix.SCF:    History steps                        = 10
mix.SCF:    Linear mixing weight                 =     0.025000
mix.SCF:    Mixing weight                        =     0.025000
mix.SCF:    SVD condition                        = 0.1000E-07
redata: ***********************************************************************

%block SCF.Mixers
  Pulay
%endblock SCF.Mixers

%block SCF.Mixer.Pulay
  # Mixing method
  method pulay
  variant stable

  # Mixing options
  weight 0.0250
  weight.linear 0.0250
  history 10
%endblock SCF.Mixer.Pulay

DM_history_depth set to one: no extrapolation allowed by default for geometry relaxation
Size of DM history Fstack: 1
Total number of electrons:    14.000000
Total ionic charge:    14.000000

* ProcessorY, Blocksize:    6   1


* Orbital distribution balance (max,min):     2     1

k-point displ. along   1 input, could be:     0.00    0.50
k-point displ. along   2 input, could be:     0.00    0.50
k-point displ. along   3 input, could be:     0.00    0.50
 Kpoints in:          600 . Kpoints trimmed:          560

siesta: k-grid: Number of k-points = 560
siesta: k-points from Monkhorst-Pack grid
siesta: k-cutoff (effective) =    18.000 Ang
siesta: k-point supercell and displacements
siesta: k-grid:    10     0     0      0.000
siesta: k-grid:     0    10     0      0.000
siesta: k-grid:     0     0    10      0.000

diag: Algorithm                                     = D&C
diag: Parallel over k                               =   F
diag: Use parallel 2D distribution                  =   T
diag: Parallel block-size                           = 1
diag: Parallel distribution                         =     4 x     6
diag: Used triangular part                          = Lower
diag: Absolute tolerance                            =  0.100E-15
diag: Orthogonalization factor                      =  0.100E-05
diag: Memory factor                                 =  1.0000

superc: Internal auxiliary supercell:     5 x     5 x     5  =     125
superc: Number of atoms, orbitals, and projectors:    375   4875   3000


ts: **************************************************************
ts: Save H and S matrices                           =    F
ts: Save DM and EDM matrices                        =    F
ts: Only save the overlap matrix S                  =    F
ts: **************************************************************

************************ Begin: TS CHECKS AND WARNINGS ************************
************************ End: TS CHECKS AND WARNINGS **************************


                     ====================================
                        Single-point calculation
                     ====================================

superc: Internal auxiliary supercell:     5 x     5 x     5  =     125
superc: Number of atoms, orbitals, and projectors:    375   4875   3000

outcell: Unit cell vectors (Ang):
        3.599990    0.000000    0.000000
        0.000000    3.599990    0.000000
        0.000000    0.000000    3.599990

outcell: Cell vector modules (Ang)   :    3.599990    3.599990    3.599990
outcell: Cell angles (23,13,12) (deg):     90.0000     90.0000     90.0000
outcell: Cell volume (Ang**3)        :     46.6556
<dSpData1D:S at geom step 0
  <sparsity:sparsity for geom step 0
    nrows_g=39 nrows=2 sparsity=.6673 nnzs=1015, refcount: 7>
  <dData1D:(new from dSpData1D) n=1015, refcount: 1>
refcount: 1>
new_DM -- step:     1
Initializing Density Matrix...

Attempting to read DM from file... Failed...
DM filled with atomic data:
<dSpData2D:DM initialized from atoms
  <sparsity:sparsity for geom step 0
    nrows_g=39 nrows=2 sparsity=.6673 nnzs=1015, refcount: 8>
  <dData2D:DM n=1015 m=1, refcount: 1>
refcount: 1>
No. of atoms with KB's overlaping orbs in proc 0. Max # of overlaps:      10     124

InitMesh: MESH = 48 x 48 x 48 = 110592
InitMesh: Mesh cutoff (required, used) =   400.000   491.340 Ry
New grid distribution [1]: sub = 2
New grid distribution [2]: sub = 2
New grid distribution [3]: sub = 2
Setting up quadratic distribution...

stepf: Fermi-Dirac step function

siesta: Program's energy decomposition (eV):
siesta: Ebs     =      -188.219415
siesta: Eions   =      1181.000621
siesta: Ena     =       261.145038
siesta: Ekin    =       447.062561
siesta: Enl     =       -42.937773
siesta: Eso     =         0.000000
siesta: Edftu   =         0.000000
siesta: DEna    =         4.715990
siesta: DUscf   =         1.232250
siesta: DUext   =         0.000000
siesta: Ex      =      -190.260848
siesta: Ec      =       -17.659318
siesta: Exc     =      -207.920166
siesta: EbV     =         0.000000
siesta: eta*DQ  =         0.000000
siesta: Emadel  =         0.000000
siesta: Emeta   =         0.000000
siesta: Emolmec =         0.000000
siesta: Ekinion =         0.000000
siesta: Eharris =      -718.775342
siesta: Etot    =      -717.702721
siesta: FreeEng =      -717.702835

        iscf     Eharris(eV)        E_KS(eV)     FreeEng(eV)     dDmax    Ef(eV) dHmax(eV)
   scf:    1     -718.775342     -717.702721     -717.702835  0.994859 -6.219416  2.704064
             Section          Calls    Walltime % sect.
 IterSCF                          1       3.774  100.00
  compute_dm                      1       3.739   99.08
  setup_H                         1       0.034    0.90
  MIXER                           1       0.000    0.00
timer: Routine,Calls,Time,% = IterSCF        1       3.774  81.20
   scf:    2     -717.941105     -717.825218     -717.825348  0.005829 -6.225435  2.392120
   scf:    3     -718.272902     -718.229313     -718.229412  0.049411 -6.276877  0.528273
   scf:    4     -718.213070     -718.230599     -718.230744  0.012759 -6.282771  0.642362
   scf:    5     -718.288537     -718.265784     -718.265899  0.016831 -6.356081  0.197084
   scf:    6     -718.262473     -718.266182     -718.266277  0.005146 -6.358459  0.165498
   scf:    7     -718.267181     -718.267233     -718.267324  0.008152 -6.352798  0.131888
   scf:    8     -718.267270     -718.267252     -718.267343  0.000059 -6.352876  0.132830
   scf:    9     -718.268599     -718.268468     -718.268569  0.002490 -6.354675  0.012361
   scf:   10     -718.268472     -718.268476     -718.268579  0.000580 -6.353296  0.010017
   scf:   11     -718.268489     -718.268485     -718.268587  0.000223 -6.353226  0.002507
   scf:   12     -718.268485     -718.268485     -718.268587  0.000105 -6.353225  0.000407
   scf:   13     -718.268485     -718.268485     -718.268587  0.000010 -6.353195  0.000267
   scf:   14     -718.268485     -718.268485     -718.268587  0.000034 -6.353233  0.000042
   scf:   15     -718.268485     -718.268485     -718.268587  0.000001 -6.353232  0.000035

SCF Convergence by DM+H criterion
max |DM_out - DM_in|         :     0.0000006798
max |H_out - H_in|      (eV) :     0.0000349360
SCF cycle converged after 15 iterations

Using DM_out to compute the final energy and forces
No. of atoms with KB's overlaping orbs in proc 0. Max # of overlaps:      10     124

siesta: E_KS(eV) =             -718.2685

siesta: E_KS - E_eggbox =      -718.2685

siesta: Atomic forces (eV/Ang):
----------------------------------------
   Tot    0.000750    0.000143    0.000038
----------------------------------------
   Max    5.595557
   Res    3.718395    sqrt( Sum f_i^2 / 3N )
----------------------------------------
   Max    5.595557    constrained

Stress tensor Voigt[x,y,z,yz,xz,xy] (kbar):       73.40      382.54      296.00       71.71      104.24       31.34
(Free)E + p*V (eV/cell)     -725.5675
Target enthalpy (eV/cell)     -718.2686

siesta: Program's energy decomposition (eV):
siesta: Ebs     =      -189.357633
siesta: Eions   =      1181.000621
siesta: Ena     =       261.145038
siesta: Ekin    =       447.464843
siesta: Enl     =       -42.783298
siesta: Eso     =         0.000000
siesta: Edftu   =         0.000000
siesta: DEna    =         4.389015
siesta: DUscf   =         0.384977
siesta: DUext   =         0.000000
siesta: Ex      =      -190.203139
siesta: Ec      =       -17.665299
siesta: Exc     =      -207.868437
siesta: EbV     =         0.000000
siesta: eta*DQ  =         0.000000
siesta: Emadel  =         0.000000
siesta: Emeta   =         0.000000
siesta: Emolmec =         0.000000
siesta: Ekinion =         0.000000
siesta: Eharris =      -718.268485
siesta: Etot    =      -718.268485
siesta: FreeEng =      -718.268587

siesta: Final energy (eV):
siesta:  Band Struct. =    -189.357633
siesta:       Kinetic =     447.464843
siesta:       Hartree =     236.316049
siesta:         Edftu =       0.000000
siesta:       Eso     =       0.000000
siesta:    Ext. field =       0.000000
siesta:         Exch. =    -190.203139
siesta:         Corr. =     -17.665299
siesta:     Bulk bias =       0.000000
siesta:   Exch.-corr. =    -207.868437
siesta:  Ion-electron =    -880.834642
siesta:       Ion-ion =    -313.346298
siesta:       Ekinion =       0.000000
siesta: D3 dispersion =       0.000000
siesta:         Total =    -718.268485
siesta:         Fermi =      -6.353232

siesta: Atomic forces (eV/Ang):
siesta:      1    3.306402    0.764321    5.595557
siesta:      2   -0.365029    4.454614   -0.550918
siesta:      3   -2.940623   -5.218793   -5.044600
siesta: ----------------------------------------
siesta:    Tot    0.000750    0.000143    0.000038

siesta: Stress tensor (static) (eV/Ang**3):
siesta:     0.045815    0.019560    0.065064
siesta:     0.019560    0.238765    0.044758
siesta:     0.065064    0.044758    0.184747

siesta: Cell volume =         46.655611 Ang**3

siesta: Pressure (static):
siesta:                Solid            Molecule  Units
siesta:          -0.00170388         -0.00045121  Ry/Bohr**3
siesta:          -0.15644262         -0.04142829  eV/Ang**3
siesta:        -250.64870735        -66.37543576  kBar
(Free)E+ p_basis*V_orbitals  =        -717.121192
(Free)Eharris+ p_basis*V_orbitals  =        -717.121192

cite: Please see "aiida.bib" for an exhaustive BiBTeX file.
cite: Please clearly indicate Siesta version in published work: NO_VERSION_LABEL_AVAILABLE
cite: This calculation has made use of the following articles
cite: which are encouraged to be cited in a published work.
        Primary SIESTA paper
          DOI: www.doi.org/10.1088/0953-8984/14/11/302


             Section          Calls    Walltime       %
 global_section                   1      53.347  100.00
  siesta                          1      53.347  100.00
   Setup                          1       0.143    0.27
    bands                         1       0.000    0.00
    KSV_init                      1       0.000    0.00
   IterGeom                       1      53.172   99.67
    geom_init                     1       0.731    1.37
     state_init                   1       0.059    0.11
      hsparse                     1       0.000    0.00
      overlap                     1       0.020    0.04
     Setup_H0                     1       0.629    1.18
      naefs                       1       0.000    0.00
      MolMec                      1       0.000    0.00
      kinefsm                     1       0.015    0.03
      nlefsm                      1       0.186    0.35
      DHSCF_Init                  1       0.427    0.80
       DHSCF1                     1       0.032    0.06
        INITMESH                  1       0.000    0.00
       DHSCF2                     1       0.396    0.74
        REMESH                    1       0.261    0.49
         INITMESH                 2       0.242    0.45
          SPLOAD                  2       0.242    0.45
        REORD                     2       0.000    0.00
        PHION                     1       0.063    0.12
        COMM_BSC                  1       0.000    0.00
        POISON                    1       0.001    0.00
         fft                      2       0.001    0.00
     setup_H                      1       0.043    0.08
      DHSCF                       1       0.043    0.08
       DHSCF3                     1       0.043    0.08
        rhoofd                    1       0.012    0.02
        COMM_BSC                  2       0.008    0.02
        POISON                    1       0.001    0.00
         fft                      2       0.001    0.00
        XC                        1       0.008    0.01
         COMM_BSC                 2       0.000    0.00
         GXC-CellXC               1       0.008    0.01
          gridxc@cellXC           1       0.008    0.01
        vmat                      1       0.013    0.03
    IterSCF                      15      52.365   98.16
     compute_dm                  15      51.959   97.40
      diagon                     15      51.959   97.40
       c-eigval                8400      25.244   47.32
        c-buildHS              8400       0.123    0.23
        cdiag                  8400      25.115   47.08
         cdiag1                8400       2.361    4.43
         cdiag2                8400       5.300    9.93
         cdiag3                8400      16.943   31.76
       c-eigvec                8400      26.353   49.40
        cdiag                  8400      26.228   49.16
         cdiag1                8400       2.357    4.42
         cdiag2                8400       5.325    9.98
         cdiag3                8400      17.004   31.87
         cdiag4                8400       0.960    1.80
       c-buildD                8400       0.308    0.58
     setup_H                     15       0.396    0.74
      DHSCF                      15       0.395    0.74
       DHSCF3                    15       0.395    0.74
        rhoofd                   15       0.156    0.29
        COMM_BSC                 30       0.034    0.06
        POISON                   15       0.010    0.02
         fft                     30       0.009    0.02
        XC                       15       0.080    0.15
         COMM_BSC                30       0.002    0.00
         GXC-CellXC              15       0.078    0.15
          gridxc@cellXC          15       0.078    0.15
        vmat                     15       0.115    0.22
     MIXER                       14       0.001    0.00
    PostSCF                       1       0.076    0.14
     naefs                        1       0.000    0.00
     kinefsm                      1       0.000    0.00
     nlefsm                       1       0.002    0.00
     DHSCF                        1       0.063    0.12
      DHSCF3                      1       0.022    0.04
       rhoofd                     1       0.010    0.02
       COMM_BSC                   2       0.001    0.00
       POISON                     1       0.001    0.00
        fft                       2       0.001    0.00
       XC                         1       0.004    0.01
        COMM_BSC                  2       0.000    0.00
        GXC-CellXC                1       0.004    0.01
         gridxc@cellXC            1       0.004    0.01
       vmat                       1       0.007    0.01
      DHSCF4                      1       0.041    0.08
       REORD                     10       0.000    0.00
       COMM_BSC                   2       0.000    0.00
       dfscf                      1       0.032    0.06
     overfsm                      1       0.000    0.00
     MolMec                       1       0.000    0.00
     writeHSX                     1       0.001    0.00
    state_analysis                1       0.000    0.00
    siesta_move                   1       0.000    0.00
   Analysis                       1       0.031    0.06
    optical                       1       0.000    0.00

>> End of run:  15-APR-2024  11:04:08
Job completed
