Siesta Version  : NO_VERSION_LABEL_AVAILABLE
Architecture    : ----
Compiler version: GNU-11.4.0
Compiler flags  : -fallow-argument-mismatch;-O3 -march=native
PP flags        : ----
Libraries       : ----
Parallelisations: MPI

Runtime information:
* Directory : /home/ICN2/jgarridoa/aiida_run/b1/0b/95c9-411a-4c9c-a754-ee6ae48fe646
* Running on 24 nodes in parallel.
>> Start of run:  13-APR-2024  13:50:09

                           *********************** 
                           *  WELCOME TO SIESTA  * 
                           *********************** 

reinit: Reading from standard input
reinit: Dumping input in INPUT_TMP.27443
************************** Dump of input data file ****************************
atomiccoordinatesformat Ang
cdfsave True
dminitspinaf False
dmmixingweight 0.025
dmmixscf1 True
dmnumberpulay 10
dmtolerance 1e-05
electronictemperature 50.000 K
geometrymustconverge T
latticeconstant 1.0 Ang
maxscfiterations 1000
meshcutoff 400 Ry
noncollinearspin False
numberofatoms 8
numberofspecies 2
savehs True
solutionmethod diagon
spinorbit False
spinpolarized False
systemlabel aiida
systemname aiida
usetreetimer T
writedmhsnetcdf True
writeorbmom True
xcauthors PBEsol
xcfunctional GGA
xmlwrite T
#
# -- Basis Set Info follows
#
PAO-BasisSize DZP
PAO-SplitNorm 0.15
PAO-EnergyShift 0.005 Ry
#
# -- Structural Info follows
#
%block chemicalspecieslabel
    1     7      N
    2     5      B
%endblock chemicalspecieslabel
%block lattice-vectors
      3.6444500000       0.0000000000       0.0000000000
      0.0000000000       3.5137800000       0.0000000000
      0.0000000000       0.0000000000       3.4759800000
%endblock lattice-vectors
%block atomiccoordinatesandatomicspecies
      3.6077503885       3.4889024376       3.4528647330    1      N      1
      3.6185379605       1.7943468948       1.7965602630    1      N      2
      1.7842498310       3.4757960382       1.7842552938    1      N      3
      1.7842498310       1.7842623462       3.4379875386    1      N      4
      0.8779480050       0.8922892932       0.8734442544    2      B      5
      0.8731737755       2.6953152246       2.6953444116    2      B      6
      2.6953258865       0.8731743300       2.6953444116    2      B      7
      2.6953258865       2.6953152246       0.8731661760    2      B      8
%endblock atomiccoordinatesandatomicspecies
#
# -- K-points Info follows
#
%block kgrid_monkhorst_pack
     6      0      0       0.0000000000
     0      6      0       0.0000000000
     0      0      6       0.0000000000
%endblock kgrid_monkhorst_pack
#
# -- Max wall-clock time block
#
maxwalltime 7200000
************************** End of input data file *****************************

reinit: -----------------------------------------------------------------------
reinit: System Name: aiida
reinit: -----------------------------------------------------------------------
reinit: System Label: aiida
reinit: -----------------------------------------------------------------------

initatom: Reading input for the pseudopotentials and atomic orbitals ----------
Species number:   1 Atomic number:    7 Label: N
Species number:   2 Atomic number:    5 Label: B


---- Processing specs for species: N
Ground state valence configuration:   2s02  2p03
Reading pseudopotential information in PSML from:
  N.psml
PSML file version: 1.1
Using libxc ids:  116 133
GGA--PBEsol XC_GGA_X_PBE_SOL--XC_GGA_C_PBE_SOL ps
PSML uuid: 56b43770-1d5f-11e8-525f-e1e3c77dc801

---- Processing specs for species: B
Ground state valence configuration:   2s02  2p01
Reading pseudopotential information in PSML from:
  B.psml
PSML file version: 1.1
Using libxc ids:  116 133
GGA--PBEsol XC_GGA_X_PBE_SOL--XC_GGA_C_PBE_SOL ps
PSML uuid: 4c4355a0-1d5f-11e8-6182-f22cff9f01b0

---- Pseudopotential check for N 

Pseudized shells:
2s( 2.00) rc: 1.21
2p( 3.00) rc: 1.36
Valence configuration for ps generation: 2s:2p: Total charge:   5.000000

---- Pseudopotential check for B 

Pseudized shells:
2s( 2.00) rc: 1.21
2p( 1.00) rc: 1.21
Valence configuration for ps generation: 2s:2p: Total charge:   3.000000
For N, standard SIESTA heuristics set lmxkb to 3
 (one more than the basis l, including polarization orbitals).
Use PS.lmax or PS.KBprojectors blocks to override.
For B, standard SIESTA heuristics set lmxkb to 3
 (one more than the basis l, including polarization orbitals).
Use PS.lmax or PS.KBprojectors blocks to override.
N pseudopotential only contains V_ls up to l=1 -- lmxkb reset.
B pseudopotential only contains V_ls up to l=1 -- lmxkb reset.

<basis_specs>
===============================================================================
N                    Z=   7    Mass=  14.007        Charge= 0.17977+309
Lmxo=2 Lmxkb= 1    BasisType=split      Semic=F
L=0  Nsemic=0  Cnfigmx=2
          i=1  nzeta=2  polorb=0  (2s)
            splnorm:   0.15000    
               vcte:    40.000    
               rinn:  -0.90000    
               qcoe:    0.0000    
               qyuk:    0.0000    
               qwid:   0.10000E-01
                rcs:    0.0000      0.0000    
            lambdas:    1.0000      1.0000    
L=1  Nsemic=0  Cnfigmx=2
          i=1  nzeta=2  polorb=1  (2p)  (to be polarized perturbatively)
            splnorm:   0.15000    
               vcte:    40.000    
               rinn:  -0.90000    
               qcoe:    0.0000    
               qyuk:    0.0000    
               qwid:   0.10000E-01
                rcs:    0.0000      0.0000    
            lambdas:    1.0000      1.0000    
L=2  Nsemic=0  Cnfigmx=3
          i=1  nzeta=0  polorb=0  (3d)  (perturbative polarization orbital) (from 2p)
-------------------------------------------------------------------------------
L=0  Nkbl=1  erefs: 0.17977+309
L=1  Nkbl=1  erefs: 0.17977+309
===============================================================================
</basis_specs>

Using PAO.SplitTailNorm
atom: Called for N                     (Z =   7)
NOTE: N pseudopotential has channels up to l= 1
NOTE: PAOs with higher l will be generated with V_local
Maximum radius (at nrval) set to   50.00000 8518

read_vps: Pseudopotential generation method:
read_vps: ONCVPSP-3.Hamann's oncvpsp                        
Valence charge in pseudo generation:    5.00000

read_vps: Pseudopotential includes a core correction:
read_vps: Pseudo-core for xc-correction

xc_check: Exchange-correlation functional:
xc_check: GGA PBEsol
Got Vlocal (oncv-fit) from psml data
Choosing vlocal chloc cutoff:  6.038618
qtot up to nchloc:    4.99997633
atom: Maximum radius for chlocal:    6.03862
atom: Maximum radius for r*vlocal+2*Zval:    6.03862
Reading KB projs from N psml data
Using scalar-relativistic projectors in PSML file

PSML: Kleinman-Bylander projectors: 
   l= 0   rc=  1.214864   Ekb= 14.928379
   l= 0   rc=  1.221004   Ekb=  1.251736
   l= 1   rc=  1.375180   Ekb= -8.619428
   l= 1   rc=  1.375180   Ekb= -2.025883

PSML: Total number of  Kleinman-Bylander projectors:   8
atom: -------------------------------------------------------------------------

atom: SANKEY-TYPE ORBITALS:
atom: Selected multiple-zeta basis: split     

SPLIT: Orbitals with angular momentum L= 0

SPLIT: Basis orbitals for state 2s

SPLIT: PAO cut-off radius determined from an
SPLIT: energy shift=  0.005000 Ry
Split based on tail norm

   izeta = 1
                 lambda =    1.000000
                     rc =    4.265195
                 energy =   -1.350827
                kinetic =    1.238925
    potential(screened) =   -2.589752
       potential(ionic) =   -8.091187

   izeta = 2
                 rmatch =    2.696970
              splitnorm =    0.150000
                 energy =   -1.041987
                kinetic =    2.172223
    potential(screened) =   -3.214210
       potential(ionic) =   -9.191634

SPLIT: Orbitals with angular momentum L= 1

SPLIT: Basis orbitals for state 2p

SPLIT: PAO cut-off radius determined from an
SPLIT: energy shift=  0.005000 Ry
Split based on tail norm

   izeta = 1
                 lambda =    1.000000
                     rc =    5.253677
                 energy =   -0.511511
                kinetic =    3.468518
    potential(screened) =   -3.980029
       potential(ionic) =   -9.293867

   izeta = 2
                 rmatch =    3.312873
              splitnorm =    0.150000
                 energy =   -0.376057
                kinetic =    4.835938
    potential(screened) =   -5.211995
       potential(ionic) =  -11.044105
*Note: V_local used for l= 2

** Using vlocal for PAOs with L= 2

POLgen: Perturbative polarization orbital with L=  2

POLgen: Polarization orbital for state 2p
*Note: V_local used for lpol= 2

** Using vlocal for PAOs with L= 2
Split based on tail norm

   izeta = 1
                     rc =    5.253677
                 energy =    1.558482
                kinetic =    2.921564
    potential(screened) =   -1.363082
       potential(ionic) =   -5.578203
atom: Total number of Sankey-type orbitals: 13

atm_pop: Valence configuration (for local Pseudopot. screening):
 2s( 2.00)                                                            
 2p( 3.00)                                                            
 3d( 0.00)                                                            
Vna: chval, zval:    5.00000   5.00000

Vna:  Cut-off radius for the neutral-atom potential:   5.253677
comcore: Pseudo-core radius Rcore=  1.572221

atom: _________________________________________________________________________

<basis_specs>
===============================================================================
B                    Z=   5    Mass=  10.810        Charge= 0.17977+309
Lmxo=2 Lmxkb= 1    BasisType=split      Semic=F
L=0  Nsemic=0  Cnfigmx=2
          i=1  nzeta=2  polorb=0  (2s)
            splnorm:   0.15000    
               vcte:    40.000    
               rinn:  -0.90000    
               qcoe:    0.0000    
               qyuk:    0.0000    
               qwid:   0.10000E-01
                rcs:    0.0000      0.0000    
            lambdas:    1.0000      1.0000    
L=1  Nsemic=0  Cnfigmx=2
          i=1  nzeta=2  polorb=1  (2p)  (to be polarized perturbatively)
            splnorm:   0.15000    
               vcte:    40.000    
               rinn:  -0.90000    
               qcoe:    0.0000    
               qyuk:    0.0000    
               qwid:   0.10000E-01
                rcs:    0.0000      0.0000    
            lambdas:    1.0000      1.0000    
L=2  Nsemic=0  Cnfigmx=3
          i=1  nzeta=0  polorb=0  (3d)  (perturbative polarization orbital) (from 2p)
-------------------------------------------------------------------------------
L=0  Nkbl=1  erefs: 0.17977+309
L=1  Nkbl=1  erefs: 0.17977+309
===============================================================================
</basis_specs>

Using PAO.SplitTailNorm
atom: Called for B                     (Z =   5)
NOTE: B pseudopotential has channels up to l= 1
NOTE: PAOs with higher l will be generated with V_local
Maximum radius (at nrval) set to   50.00000 8518

read_vps: Pseudopotential generation method:
read_vps: ONCVPSP-3.Hamann's oncvpsp                        
Valence charge in pseudo generation:    3.00000

read_vps: Pseudopotential includes a core correction:
read_vps: Pseudo-core for xc-correction

xc_check: Exchange-correlation functional:
xc_check: GGA PBEsol
Got Vlocal (oncv-fit) from psml data
Choosing vlocal chloc cutoff:  3.201794
qtot up to nchloc:    3.00023194
atom: Maximum radius for chlocal:    3.20179
atom: Maximum radius for r*vlocal+2*Zval:    3.20179
Reading KB projs from B psml data
Using scalar-relativistic projectors in PSML file

PSML: Kleinman-Bylander projectors: 
   l= 0   rc=  1.223468   Ekb= 16.933205
   l= 0   rc=  1.223468   Ekb=  2.495260
   l= 1   rc=  1.223468   Ekb= -7.218359
   l= 1   rc=  1.223468   Ekb= -1.645242

PSML: Total number of  Kleinman-Bylander projectors:   8
atom: -------------------------------------------------------------------------

atom: SANKEY-TYPE ORBITALS:
atom: Selected multiple-zeta basis: split     

SPLIT: Orbitals with angular momentum L= 0

SPLIT: Basis orbitals for state 2s

SPLIT: PAO cut-off radius determined from an
SPLIT: energy shift=  0.005000 Ry
Split based on tail norm

   izeta = 1
                 lambda =    1.000000
                     rc =    5.714927
                 energy =   -0.682223
                kinetic =    0.604116
    potential(screened) =   -1.286339
       potential(ionic) =   -3.302390

   izeta = 2
                 rmatch =    3.823698
              splitnorm =    0.150000
                 energy =   -0.502064
                kinetic =    1.116406
    potential(screened) =   -1.618470
       potential(ionic) =   -3.792969

SPLIT: Orbitals with angular momentum L= 1

SPLIT: Basis orbitals for state 2p

SPLIT: PAO cut-off radius determined from an
SPLIT: energy shift=  0.005000 Ry
Split based on tail norm

   izeta = 1
                 lambda =    1.000000
                     rc =    7.066857
                 energy =   -0.255540
                kinetic =    1.512761
    potential(screened) =   -1.768301
       potential(ionic) =   -3.690166

   izeta = 2
                 rmatch =    4.748011
              splitnorm =    0.150000
                 energy =   -0.176810
                kinetic =    2.206388
    potential(screened) =   -2.383198
       potential(ionic) =   -4.488680
*Note: V_local used for l= 2

** Using vlocal for PAOs with L= 2

POLgen: Perturbative polarization orbital with L=  2

POLgen: Polarization orbital for state 2p
*Note: V_local used for lpol= 2

** Using vlocal for PAOs with L= 2
Split based on tail norm

   izeta = 1
                     rc =    7.066857
                 energy =    0.676401
                kinetic =    1.417761
    potential(screened) =   -0.741360
       potential(ionic) =   -2.355753
atom: Total number of Sankey-type orbitals: 13

atm_pop: Valence configuration (for local Pseudopot. screening):
 2s( 2.00)                                                            
 2p( 1.00)                                                            
 3d( 0.00)                                                            
Vna: chval, zval:    3.00000   3.00000

Vna:  Cut-off radius for the neutral-atom potential:   7.066857
comcore: Pseudo-core radius Rcore=  1.975419

atom: _________________________________________________________________________

prinput: Basis input 

PAO.BasisType split     

%block ChemicalSpeciesLabel
    1    7 N                       # Species index, atomic number, species label
    2    5 B                       # Species index, atomic number, species label
%endblock ChemicalSpeciesLabel

%block PAO.Basis                 # Define Basis set
# WARNING: This information might be incomplete!
N                     2                    # Species label, number of l-shells
 n=2   0   2                         # n, l, Nzeta 
   4.265      2.697   
   1.000      1.000   
 n=2   1   2 P   1                   # n, l, Nzeta, Polarization, NzetaPol
   5.254      3.313   
   1.000      1.000   
B                     2                    # Species label, number of l-shells
 n=2   0   2                         # n, l, Nzeta 
   5.715      3.824   
   1.000      1.000   
 n=2   1   2 P   1                   # n, l, Nzeta, Polarization, NzetaPol
   7.067      4.748   
   1.000      1.000   
%endblock PAO.Basis

prinput: ----------------------------------------------------------------------

coor:   Atomic-coordinates input format  =     Cartesian coordinates
coor:                                          (in Angstroms)

siesta: Atomic coordinates (Bohr) and species
siesta:      6.81766   6.59307   6.52497  1        1
siesta:      6.83805   3.39082   3.39501  1        2
siesta:      3.37174   6.56830   3.37175  1        3
siesta:      3.37174   3.37177   6.49685  1        4
siesta:      1.65908   1.68618   1.65057  2        5
siesta:      1.65006   5.09341   5.09346  2        6
siesta:      5.09343   1.65006   5.09346  2        7
siesta:      5.09343   5.09341   1.65004  2        8

siesta: System type = bulk      

initatomlists: Number of atoms, orbitals, and projectors:      8   104    64

siesta: ******************** Simulation parameters ****************************
siesta:
siesta: The following are some of the parameters of the simulation.
siesta: A complete list of the parameters used, including default values,
siesta: can be found in file out.fdf
siesta:
redata: Spin configuration                          = none
redata: Number of spin components                   = 1
redata: Time-Reversal Symmetry                      = T
redata: Spin spiral                                 = F
redata: Long output                                 =   F
redata: Number of Atomic Species                    =        2
redata: Charge density info will appear in .RHO file
redata: Write Mulliken Pop.                         = NO
redata: Matel table size (NRTAB)                    =     1024
redata: Mesh Cutoff                                 =   400.0000 Ry
redata: Net charge of the system                    =     0.0000 |e|
redata: Min. number of SCF Iter                     =        0
redata: Max. number of SCF Iter                     =     1000
redata: SCF convergence failure will abort job
redata: SCF mix quantity                            = Hamiltonian
redata: Mix DM or H after convergence               =   F
redata: Recompute H after scf cycle                 =   F
redata: Mix DM in first SCF step                    =   T
redata: Write Pulay info on disk                    =   F
redata: New DM Occupancy tolerance                  = 0.000000000001
redata: No kicks to SCF
redata: DM Mixing Weight for Kicks                  =     0.5000
redata: Require Harris convergence for SCF          =   F
redata: Harris energy tolerance for SCF             =     0.000100 eV
redata: Require DM convergence for SCF              =   T
redata: DM tolerance for SCF                        =     0.000010
redata: Require EDM convergence for SCF             =   F
redata: EDM tolerance for SCF                       =     0.001000 eV
redata: Require H convergence for SCF               =   T
redata: Hamiltonian tolerance for SCF               =     0.001000 eV
redata: Require (free) Energy convergence for SCF   =   F
redata: (free) Energy tolerance for SCF             =     0.000100 eV
redata: Using DFT-D3 dispersion                     =   F
redata: Using Saved Data (generic)                  =   F
redata: Use continuation files for DM               =   T
redata: Neglect nonoverlap interactions             =   F
redata: Method of Calculation                       = Diagonalization
redata: Electronic Temperature                      =    50.0000 K
redata: Fix the spin of the system                  =   F
redata: Max. number of TDED Iter                    =        1
redata: Number of TDED substeps                     =        3
redata: Dynamics option                             = Single-point calculation
mix.SCF: Pulay mixing                            = Pulay
mix.SCF:    Variant                              = stable
mix.SCF:    History steps                        = 10
mix.SCF:    Linear mixing weight                 =     0.025000
mix.SCF:    Mixing weight                        =     0.025000
mix.SCF:    SVD condition                        = 0.1000E-07
redata: ***********************************************************************

%block SCF.Mixers
  Pulay
%endblock SCF.Mixers

%block SCF.Mixer.Pulay
  # Mixing method
  method pulay
  variant stable

  # Mixing options
  weight 0.0250
  weight.linear 0.0250
  history 10
%endblock SCF.Mixer.Pulay

DM_history_depth set to one: no extrapolation allowed by default for geometry relaxation
Size of DM history Fstack: 1
Total number of electrons:    32.000000
Total ionic charge:    32.000000

* ProcessorY, Blocksize:    6   4


* Orbital distribution balance (max,min):     8     4

k-point displ. along   1 input, could be:     0.00    0.50
k-point displ. along   2 input, could be:     0.00    0.50
k-point displ. along   3 input, could be:     0.00    0.50
 Kpoints in:          144 . Kpoints trimmed:          132

siesta: k-grid: Number of k-points = 132
siesta: k-points from Monkhorst-Pack grid
siesta: k-cutoff (effective) =    10.428 Ang
siesta: k-point supercell and displacements
siesta: k-grid:     6     0     0      0.000
siesta: k-grid:     0     6     0      0.000
siesta: k-grid:     0     0     6      0.000

diag: Algorithm                                     = D&C
diag: Parallel over k                               =   F
diag: Use parallel 2D distribution                  =   T
diag: Parallel block-size                           = 4
diag: Parallel distribution                         =     4 x     6
diag: Used triangular part                          = Lower
diag: Absolute tolerance                            =  0.100E-15
diag: Orthogonalization factor                      =  0.100E-05
diag: Memory factor                                 =  1.0000

superc: Internal auxiliary supercell:     5 x     5 x     5  =     125
superc: Number of atoms, orbitals, and projectors:   1000  13000   8000


ts: **************************************************************
ts: Save H and S matrices                           =    F
ts: Save DM and EDM matrices                        =    F
ts: Only save the overlap matrix S                  =    F
ts: **************************************************************

************************ Begin: TS CHECKS AND WARNINGS ************************
************************ End: TS CHECKS AND WARNINGS **************************


                     ====================================
                        Single-point calculation
                     ====================================

superc: Internal auxiliary supercell:     5 x     5 x     5  =     125
superc: Number of atoms, orbitals, and projectors:   1000  13000   8000

outcell: Unit cell vectors (Ang):
        3.644450    0.000000    0.000000
        0.000000    3.513780    0.000000
        0.000000    0.000000    3.475980

outcell: Cell vector modules (Ang)   :    3.644450    3.513780    3.475980
outcell: Cell angles (23,13,12) (deg):     90.0000     90.0000     90.0000
outcell: Cell volume (Ang**3)        :     44.5127
<dSpData1D:S at geom step 0
  <sparsity:sparsity for geom step 0
    nrows_g=104 nrows=8 sparsity=1.7068 nnzs=18461, refcount: 7>
  <dData1D:(new from dSpData1D) n=18461, refcount: 1>
refcount: 1>
new_DM -- step:     1
Initializing Density Matrix...

Attempting to read DM from file... Failed...
DM filled with atomic data:
<dSpData2D:DM initialized from atoms
  <sparsity:sparsity for geom step 0
    nrows_g=104 nrows=8 sparsity=1.7068 nnzs=18461, refcount: 8>
  <dData2D:DM n=18461 m=1, refcount: 1>
refcount: 1>
No. of atoms with KB's overlaping orbs in proc 0. Max # of overlaps:      76     529

InitMesh: MESH = 48 x 48 x 48 = 110592
InitMesh: Mesh cutoff (required, used) =   400.000   479.425 Ry
New grid distribution [1]: sub = 2
New grid distribution [2]: sub = 2
New grid distribution [3]: sub = 2
Setting up quadratic distribution...

stepf: Fermi-Dirac step function

siesta: Program's energy decomposition (eV):
siesta: Ebs     =      -476.083085
siesta: Eions   =      2442.366599
siesta: Ena     =       582.421294
siesta: Ekin    =      1087.958864
siesta: Enl     =      -129.844029
siesta: Eso     =         0.000000
siesta: Edftu   =         0.000000
siesta: DEna    =       -70.847893
siesta: DUscf   =         8.125620
siesta: DUext   =         0.000000
siesta: Ex      =      -441.475813
siesta: Ec      =       -44.844897
siesta: Exc     =      -486.320710
siesta: EbV     =         0.000000
siesta: eta*DQ  =         0.000000
siesta: Emadel  =         0.000000
siesta: Emeta   =         0.000000
siesta: Emolmec =         0.000000
siesta: Ekinion =         0.000000
siesta: Eharris =     -1411.736824
siesta: Etot    =     -1450.873453
siesta: FreeEng =     -1450.873453

        iscf     Eharris(eV)        E_KS(eV)     FreeEng(eV)     dDmax    Ef(eV) dHmax(eV)
   scf:    1    -1411.736824    -1450.873453    -1450.873453  1.764891 -4.754820  4.146480
             Section          Calls    Walltime % sect.
 IterSCF                          1       1.688  100.00
  compute_dm                      1       1.420   84.17
  setup_H                         1       0.263   15.58
  MIXER                           1       0.000    0.00
timer: Routine,Calls,Time,% = IterSCF        1       1.688  46.61
   scf:    2    -1451.432661    -1451.155506    -1451.155506  0.023571 -4.709364  3.933508
   scf:    3    -1453.962740    -1453.325891    -1453.325891  0.362754 -6.013701  0.632015
   scf:    4    -1453.157864    -1453.245939    -1453.245939  0.026310 -6.049694  0.881442
   scf:    5    -1453.495600    -1453.400276    -1453.400276  0.116675 -5.840904  0.168192
   scf:    6    -1453.402507    -1453.403247    -1453.403247  0.016506 -5.817053  0.076454
   scf:    7    -1453.404057    -1453.404321    -1453.404321  0.002359 -5.808936  0.039269
   scf:    8    -1453.404723    -1453.404583    -1453.404583  0.002965 -5.813636  0.004690
   scf:    9    -1453.404547    -1453.404566    -1453.404566  0.000437 -5.814311  0.010099
   scf:   10    -1453.404606    -1453.404589    -1453.404589  0.000566 -5.813653  0.002544
mix: Pulay -- inversion failed, > SVD [rank/size] 6 / 9
   scf:   11    -1453.404591    -1453.404591    -1453.404591  0.000229 -5.813213  0.001199
mix: Pulay -- inversion failed, > SVD [rank/size] 6 / 9
   scf:   12    -1453.404591    -1453.404591    -1453.404591  0.000028 -5.813253  0.001381
   scf:   13    -1453.404591    -1453.404591    -1453.404591  0.000379 -5.813460  0.000244
mix: Pulay -- inversion failed, > SVD [rank/size] 6 / 9
   scf:   14    -1453.404591    -1453.404591    -1453.404591  0.000012 -5.813471  0.000028
   scf:   15    -1453.404591    -1453.404591    -1453.404591  0.000003 -5.813473  0.000013

SCF Convergence by DM+H criterion
max |DM_out - DM_in|         :     0.0000033738
max |H_out - H_in|      (eV) :     0.0000132773
SCF cycle converged after 15 iterations

Using DM_out to compute the final energy and forces
No. of atoms with KB's overlaping orbs in proc 0. Max # of overlaps:      76     529

siesta: E_KS(eV) =            -1453.4046

siesta: E_KS - E_eggbox =     -1453.4046

siesta: Atomic forces (eV/Ang):
----------------------------------------
   Tot   -0.000816    0.000569    0.000186
----------------------------------------
   Max    3.772511
   Res    2.025456    sqrt( Sum f_i^2 / 3N )
----------------------------------------
   Max    3.772511    constrained

Stress tensor Voigt[x,y,z,yz,xz,xy] (kbar):     -122.51     -356.74     -396.64       -6.88       39.78       55.88
(Free)E + p*V (eV/cell)    -1445.2930
Target enthalpy (eV/cell)    -1453.4046

siesta: Program's energy decomposition (eV):
siesta: Ebs     =      -510.545820
siesta: Eions   =      2442.366599
siesta: Ena     =       582.421294
siesta: Ekin    =      1032.653267
siesta: Enl     =      -112.336310
siesta: Eso     =         0.000000
siesta: Edftu   =         0.000000
siesta: DEna    =       -40.400690
siesta: DUscf   =         3.285537
siesta: DUext   =         0.000000
siesta: Ex      =      -431.460130
siesta: Ec      =       -45.200960
siesta: Exc     =      -476.661090
siesta: EbV     =         0.000000
siesta: eta*DQ  =         0.000000
siesta: Emadel  =         0.000000
siesta: Emeta   =         0.000000
siesta: Emolmec =         0.000000
siesta: Ekinion =         0.000000
siesta: Eharris =     -1453.404591
siesta: Etot    =     -1453.404591
siesta: FreeEng =     -1453.404591

siesta: Final energy (eV):
siesta:  Band Struct. =    -510.545820
siesta:       Kinetic =    1032.653267
siesta:       Hartree =     187.591164
siesta:         Edftu =       0.000000
siesta:       Eso     =       0.000000
siesta:    Ext. field =       0.000000
siesta:         Exch. =    -431.460130
siesta:         Corr. =     -45.200960
siesta:     Bulk bias =       0.000000
siesta:   Exch.-corr. =    -476.661090
siesta:  Ion-electron =   -1373.624829
siesta:       Ion-ion =    -823.363102
siesta:       Ekinion =       0.000000
siesta: D3 dispersion =       0.000000
siesta:         Total =   -1453.404591
siesta:         Fermi =      -5.813473

siesta: Atomic forces (eV/Ang):
siesta:      1   -0.515455    2.930629    3.689830
siesta:      2   -0.464011   -1.164808   -1.597239
siesta:      3    0.057638    3.005165   -1.205462
siesta:      4    0.138809   -0.787901    3.757437
siesta:      5   -0.042267    0.459918    1.359268
siesta:      6    0.565616   -2.775652   -3.772511
siesta:      7    0.135168    0.943688   -3.572851
siesta:      8    0.123685   -2.610469    1.341714
siesta: ----------------------------------------
siesta:    Tot   -0.000816    0.000569    0.000186

siesta: Stress tensor (static) (eV/Ang**3):
siesta:    -0.076468    0.034876    0.024832
siesta:     0.034876   -0.222657   -0.004293
siesta:     0.024832   -0.004293   -0.247565

siesta: Cell volume =         44.512689 Ang**3

siesta: Pressure (static):
siesta:                Solid            Molecule  Units
siesta:           0.00198474          0.00157234  Ry/Bohr**3
siesta:           0.18223015          0.14436601  eV/Ang**3
siesta:         291.96488872        231.29984935  kBar
(Free)E+ p_basis*V_orbitals  =       -1448.820577
(Free)Eharris+ p_basis*V_orbitals  =       -1448.820577

cite: Please see "aiida.bib" for an exhaustive BiBTeX file.
cite: Please clearly indicate Siesta version in published work: NO_VERSION_LABEL_AVAILABLE
cite: This calculation has made use of the following articles
cite: which are encouraged to be cited in a published work.
        Primary SIESTA paper
          DOI: www.doi.org/10.1088/0953-8984/14/11/302


             Section          Calls    Walltime       %
 global_section                   1      28.493  100.00
  siesta                          1      28.493  100.00
   Setup                          1       0.143    0.50
    bands                         1       0.000    0.00
    KSV_init                      1       0.000    0.00
   IterGeom                       1      28.331   99.43
    geom_init                     1       1.790    6.28
     state_init                   1       0.168    0.59
      hsparse                     1       0.008    0.03
      overlap                     1       0.068    0.24
     Setup_H0                     1       1.310    4.60
      naefs                       1       0.001    0.00
      MolMec                      1       0.000    0.00
      kinefsm                     1       0.066    0.23
      nlefsm                      1       0.341    1.20
      DHSCF_Init                  1       0.902    3.17
       DHSCF1                     1       0.048    0.17
        INITMESH                  1       0.000    0.00
       DHSCF2                     1       0.854    3.00
        REMESH                    1       0.355    1.25
         INITMESH                 2       0.188    0.66
          SPLOAD                  2       0.188    0.66
        REORD                     2       0.000    0.00
        PHION                     1       0.367    1.29
        COMM_BSC                  1       0.000    0.00
        POISON                    1       0.001    0.00
         fft                      2       0.001    0.00
     setup_H                      1       0.312    1.10
      DHSCF                       1       0.312    1.10
       DHSCF3                     1       0.312    1.10
        rhoofd                    1       0.144    0.50
        COMM_BSC                  2       0.033    0.11
        POISON                    1       0.001    0.00
         fft                      2       0.001    0.00
        XC                        1       0.008    0.03
         COMM_BSC                 2       0.000    0.00
         GXC-CellXC               1       0.008    0.03
          gridxc@cellXC           1       0.008    0.03
        vmat                      1       0.127    0.44
    IterSCF                      15      25.586   89.80
     compute_dm                  15      21.587   75.76
      diagon                     15      21.585   75.75
       c-eigval                1980       9.921   34.82
        c-buildHS              1980       0.511    1.79
        cdiag                  1980       9.409   33.02
         cdiag1                1980       0.531    1.86
         cdiag2                1980       1.248    4.38
         cdiag3                1980       7.396   25.96
       c-eigvec                1980      10.459   36.71
        cdiag                  1980       9.950   34.92
         cdiag1                1980       0.540    1.89
         cdiag2                1980       1.260    4.42
         cdiag3                1980       7.428   26.07
         cdiag4                1980       0.368    1.29
       c-buildD                1980       1.195    4.19
     setup_H                     15       3.921   13.76
      DHSCF                      15       3.919   13.75
       DHSCF3                    15       3.919   13.75
        rhoofd                   15       2.205    7.74
        COMM_BSC                 30       0.234    0.82
        POISON                   15       0.010    0.04
         fft                     30       0.010    0.03
        XC                       15       0.080    0.28
         COMM_BSC                30       0.002    0.01
         GXC-CellXC              15       0.079    0.28
          gridxc@cellXC          15       0.078    0.28
        vmat                     15       1.387    4.87
     MIXER                       14       0.010    0.04
    PostSCF                       1       0.954    3.35
     naefs                        1       0.000    0.00
     kinefsm                      1       0.004    0.01
     nlefsm                       1       0.084    0.30
     DHSCF                        1       0.798    2.80
      DHSCF3                      1       0.282    0.99
       rhoofd                     1       0.138    0.48
       COMM_BSC                   2       0.023    0.08
       POISON                     1       0.001    0.00
        fft                       2       0.001    0.00
       XC                         1       0.004    0.02
        COMM_BSC                  2       0.000    0.00
        GXC-CellXC                1       0.004    0.02
         gridxc@cellXC            1       0.004    0.02
       vmat                       1       0.117    0.41
      DHSCF4                      1       0.516    1.81
       REORD                     10       0.000    0.00
       COMM_BSC                   2       0.004    0.01
       dfscf                      1       0.446    1.56
     overfsm                      1       0.005    0.02
     MolMec                       1       0.000    0.00
     writeHSX                     1       0.007    0.02
    state_analysis                1       0.001    0.00
    siesta_move                   1       0.000    0.00
   Analysis                       1       0.017    0.06
    optical                       1       0.000    0.00

>> End of run:  13-APR-2024  13:50:37
Job completed
