Siesta Version  : NO_VERSION_LABEL_AVAILABLE
Architecture    : ----
Compiler version: GNU-11.4.0
Compiler flags  : -fallow-argument-mismatch;-O3 -march=native
PP flags        : ----
Libraries       : ----
Parallelisations: MPI

Runtime information:
* Directory : /home/ICN2/jgarridoa/aiida_run/5d/c3/f7a0-db9c-4d18-8426-7fd898079044
* Running on 24 nodes in parallel.
>> Start of run:  14-APR-2024  22:32:00

                           *********************** 
                           *  WELCOME TO SIESTA  * 
                           *********************** 

reinit: Reading from standard input
reinit: Dumping input in INPUT_TMP.55422
************************** Dump of input data file ****************************
atomiccoordinatesformat Ang
cdfsave True
dminitspinaf False
dmmixingweight 0.025
dmmixscf1 True
dmnumberpulay 10
dmtolerance 1e-05
electronictemperature 50.000 K
geometrymustconverge T
latticeconstant 1.0 Ang
maxscfiterations 1000
meshcutoff 400 Ry
noncollinearspin False
numberofatoms 3
numberofspecies 2
savehs True
solutionmethod diagon
spinorbit False
spinpolarized False
systemlabel aiida
systemname aiida
usetreetimer T
writedmhsnetcdf True
writeorbmom True
xcauthors PBEsol
xcfunctional GGA
xmlwrite T
#
# -- Basis Set Info follows
#
PAO-BasisSize DZP
PAO-SplitNorm 0.15
PAO-EnergyShift 0.005 Ry
#
# -- Structural Info follows
#
%block chemicalspecieslabel
    1     7      N
    2     6      C
%endblock chemicalspecieslabel
%block lattice-vectors
      3.5999900000       0.0000000000       0.0000000000
      0.0000000000       3.5999900000       0.0000000000
      0.0000000000       0.0000000000       3.5999900000
%endblock lattice-vectors
%block atomiccoordinatesandatomicspecies
      2.9851477079       0.6391782245       0.0000000000    1      N      1
      0.5685464207       2.3098615837       0.1227596590    1      N      2
      1.2800844442       0.6072103133       0.0564838431    2      C      3
%endblock atomiccoordinatesandatomicspecies
#
# -- K-points Info follows
#
%block kgrid_monkhorst_pack
    12      0      0       0.0000000000
     0     12      0       0.0000000000
     0      0     12       0.0000000000
%endblock kgrid_monkhorst_pack
#
# -- Max wall-clock time block
#
maxwalltime 7200000
************************** End of input data file *****************************

reinit: -----------------------------------------------------------------------
reinit: System Name: aiida
reinit: -----------------------------------------------------------------------
reinit: System Label: aiida
reinit: -----------------------------------------------------------------------

initatom: Reading input for the pseudopotentials and atomic orbitals ----------
Species number:   1 Atomic number:    7 Label: N
Species number:   2 Atomic number:    6 Label: C


---- Processing specs for species: N
Ground state valence configuration:   2s02  2p03
Reading pseudopotential information in PSML from:
  N.psml
PSML file version: 1.1
Using libxc ids:  116 133
GGA--PBEsol XC_GGA_X_PBE_SOL--XC_GGA_C_PBE_SOL ps
PSML uuid: 56b43770-1d5f-11e8-525f-e1e3c77dc801

---- Processing specs for species: C
Ground state valence configuration:   2s02  2p02
Reading pseudopotential information in PSML from:
  C.psml
PSML file version: 1.1
Using libxc ids:  116 133
GGA--PBEsol XC_GGA_X_PBE_SOL--XC_GGA_C_PBE_SOL ps
PSML uuid: 51a02af0-1d5f-11e8-49c3-12b9ebd99919

---- Pseudopotential check for N 

Pseudized shells:
2s( 2.00) rc: 1.21
2p( 3.00) rc: 1.36
Valence configuration for ps generation: 2s:2p: Total charge:   5.000000

---- Pseudopotential check for C 

Pseudized shells:
2s( 2.00) rc: 1.20
2p( 2.00) rc: 1.26
Valence configuration for ps generation: 2s:2p: Total charge:   4.000000
For N, standard SIESTA heuristics set lmxkb to 3
 (one more than the basis l, including polarization orbitals).
Use PS.lmax or PS.KBprojectors blocks to override.
For C, standard SIESTA heuristics set lmxkb to 3
 (one more than the basis l, including polarization orbitals).
Use PS.lmax or PS.KBprojectors blocks to override.
N pseudopotential only contains V_ls up to l=1 -- lmxkb reset.
C pseudopotential only contains V_ls up to l=1 -- lmxkb reset.

<basis_specs>
===============================================================================
N                    Z=   7    Mass=  14.007        Charge= 0.17977+309
Lmxo=2 Lmxkb= 1    BasisType=split      Semic=F
L=0  Nsemic=0  Cnfigmx=2
          i=1  nzeta=2  polorb=0  (2s)
            splnorm:   0.15000    
               vcte:    40.000    
               rinn:  -0.90000    
               qcoe:    0.0000    
               qyuk:    0.0000    
               qwid:   0.10000E-01
                rcs:    0.0000      0.0000    
            lambdas:    1.0000      1.0000    
L=1  Nsemic=0  Cnfigmx=2
          i=1  nzeta=2  polorb=1  (2p)  (to be polarized perturbatively)
            splnorm:   0.15000    
               vcte:    40.000    
               rinn:  -0.90000    
               qcoe:    0.0000    
               qyuk:    0.0000    
               qwid:   0.10000E-01
                rcs:    0.0000      0.0000    
            lambdas:    1.0000      1.0000    
L=2  Nsemic=0  Cnfigmx=3
          i=1  nzeta=0  polorb=0  (3d)  (perturbative polarization orbital) (from 2p)
-------------------------------------------------------------------------------
L=0  Nkbl=1  erefs: 0.17977+309
L=1  Nkbl=1  erefs: 0.17977+309
===============================================================================
</basis_specs>

Using PAO.SplitTailNorm
atom: Called for N                     (Z =   7)
NOTE: N pseudopotential has channels up to l= 1
NOTE: PAOs with higher l will be generated with V_local
Maximum radius (at nrval) set to   50.00000 8518

read_vps: Pseudopotential generation method:
read_vps: ONCVPSP-3.Hamann's oncvpsp                        
Valence charge in pseudo generation:    5.00000

read_vps: Pseudopotential includes a core correction:
read_vps: Pseudo-core for xc-correction

xc_check: Exchange-correlation functional:
xc_check: GGA PBEsol
Got Vlocal (oncv-fit) from psml data
Choosing vlocal chloc cutoff:  6.038618
qtot up to nchloc:    4.99997633
atom: Maximum radius for chlocal:    6.03862
atom: Maximum radius for r*vlocal+2*Zval:    6.03862
Reading KB projs from N psml data
Using scalar-relativistic projectors in PSML file

PSML: Kleinman-Bylander projectors: 
   l= 0   rc=  1.214864   Ekb= 14.928379
   l= 0   rc=  1.221004   Ekb=  1.251736
   l= 1   rc=  1.375180   Ekb= -8.619428
   l= 1   rc=  1.375180   Ekb= -2.025883

PSML: Total number of  Kleinman-Bylander projectors:   8
atom: -------------------------------------------------------------------------

atom: SANKEY-TYPE ORBITALS:
atom: Selected multiple-zeta basis: split     

SPLIT: Orbitals with angular momentum L= 0

SPLIT: Basis orbitals for state 2s

SPLIT: PAO cut-off radius determined from an
SPLIT: energy shift=  0.005000 Ry
Split based on tail norm

   izeta = 1
                 lambda =    1.000000
                     rc =    4.265195
                 energy =   -1.350827
                kinetic =    1.238925
    potential(screened) =   -2.589752
       potential(ionic) =   -8.091187

   izeta = 2
                 rmatch =    2.696970
              splitnorm =    0.150000
                 energy =   -1.041987
                kinetic =    2.172223
    potential(screened) =   -3.214210
       potential(ionic) =   -9.191634

SPLIT: Orbitals with angular momentum L= 1

SPLIT: Basis orbitals for state 2p

SPLIT: PAO cut-off radius determined from an
SPLIT: energy shift=  0.005000 Ry
Split based on tail norm

   izeta = 1
                 lambda =    1.000000
                     rc =    5.253677
                 energy =   -0.511511
                kinetic =    3.468518
    potential(screened) =   -3.980029
       potential(ionic) =   -9.293867

   izeta = 2
                 rmatch =    3.312873
              splitnorm =    0.150000
                 energy =   -0.376057
                kinetic =    4.835938
    potential(screened) =   -5.211995
       potential(ionic) =  -11.044105
*Note: V_local used for l= 2

** Using vlocal for PAOs with L= 2

POLgen: Perturbative polarization orbital with L=  2

POLgen: Polarization orbital for state 2p
*Note: V_local used for lpol= 2

** Using vlocal for PAOs with L= 2
Split based on tail norm

   izeta = 1
                     rc =    5.253677
                 energy =    1.558482
                kinetic =    2.921564
    potential(screened) =   -1.363082
       potential(ionic) =   -5.578203
atom: Total number of Sankey-type orbitals: 13

atm_pop: Valence configuration (for local Pseudopot. screening):
 2s( 2.00)                                                            
 2p( 3.00)                                                            
 3d( 0.00)                                                            
Vna: chval, zval:    5.00000   5.00000

Vna:  Cut-off radius for the neutral-atom potential:   5.253677
comcore: Pseudo-core radius Rcore=  1.572221

atom: _________________________________________________________________________

<basis_specs>
===============================================================================
C                    Z=   6    Mass=  12.011        Charge= 0.17977+309
Lmxo=2 Lmxkb= 1    BasisType=split      Semic=F
L=0  Nsemic=0  Cnfigmx=2
          i=1  nzeta=2  polorb=0  (2s)
            splnorm:   0.15000    
               vcte:    40.000    
               rinn:  -0.90000    
               qcoe:    0.0000    
               qyuk:    0.0000    
               qwid:   0.10000E-01
                rcs:    0.0000      0.0000    
            lambdas:    1.0000      1.0000    
L=1  Nsemic=0  Cnfigmx=2
          i=1  nzeta=2  polorb=1  (2p)  (to be polarized perturbatively)
            splnorm:   0.15000    
               vcte:    40.000    
               rinn:  -0.90000    
               qcoe:    0.0000    
               qyuk:    0.0000    
               qwid:   0.10000E-01
                rcs:    0.0000      0.0000    
            lambdas:    1.0000      1.0000    
L=2  Nsemic=0  Cnfigmx=3
          i=1  nzeta=0  polorb=0  (3d)  (perturbative polarization orbital) (from 2p)
-------------------------------------------------------------------------------
L=0  Nkbl=1  erefs: 0.17977+309
L=1  Nkbl=1  erefs: 0.17977+309
===============================================================================
</basis_specs>

Using PAO.SplitTailNorm
atom: Called for C                     (Z =   6)
NOTE: C pseudopotential has channels up to l= 1
NOTE: PAOs with higher l will be generated with V_local
Maximum radius (at nrval) set to   50.00000 8518

read_vps: Pseudopotential generation method:
read_vps: ONCVPSP-3.Hamann's oncvpsp                        
Valence charge in pseudo generation:    4.00000

read_vps: Pseudopotential includes a core correction:
read_vps: Pseudo-core for xc-correction

xc_check: Exchange-correlation functional:
xc_check: GGA PBEsol
Got Vlocal (oncv-fit) from psml data
Choosing vlocal chloc cutoff:  4.114026
qtot up to nchloc:    4.00001066
atom: Maximum radius for chlocal:    4.11403
atom: Maximum radius for r*vlocal+2*Zval:    4.11403
Reading KB projs from C psml data
Using scalar-relativistic projectors in PSML file

PSML: Kleinman-Bylander projectors: 
   l= 0   rc=  1.219773   Ekb= 12.937878
   l= 0   rc=  1.219773   Ekb=  0.780062
   l= 1   rc=  1.278952   Ekb= -8.359390
   l= 1   rc=  1.278952   Ekb= -1.756905

PSML: Total number of  Kleinman-Bylander projectors:   8
atom: -------------------------------------------------------------------------

atom: SANKEY-TYPE ORBITALS:
atom: Selected multiple-zeta basis: split     

SPLIT: Orbitals with angular momentum L= 0

SPLIT: Basis orbitals for state 2s

SPLIT: PAO cut-off radius determined from an
SPLIT: energy shift=  0.005000 Ry
Split based on tail norm

   izeta = 1
                 lambda =    1.000000
                     rc =    4.858714
                 energy =   -0.997375
                kinetic =    0.928233
    potential(screened) =   -1.925608
       potential(ionic) =   -5.470603

   izeta = 2
                 rmatch =    3.157143
              splitnorm =    0.150000
                 energy =   -0.747328
                kinetic =    1.689643
    potential(screened) =   -2.436971
       potential(ionic) =   -6.275825

SPLIT: Orbitals with angular momentum L= 1

SPLIT: Basis orbitals for state 2p

SPLIT: PAO cut-off radius determined from an
SPLIT: energy shift=  0.005000 Ry
Split based on tail norm

   izeta = 1
                 lambda =    1.000000
                     rc =    5.984425
                 energy =   -0.378962
                kinetic =    2.440834
    potential(screened) =   -2.819796
       potential(ionic) =   -6.224005

   izeta = 2
                 rmatch =    3.889428
              splitnorm =    0.150000
                 energy =   -0.273331
                kinetic =    3.469746
    potential(screened) =   -3.743077
       potential(ionic) =   -7.475055
*Note: V_local used for l= 2

** Using vlocal for PAOs with L= 2

POLgen: Perturbative polarization orbital with L=  2

POLgen: Polarization orbital for state 2p
*Note: V_local used for lpol= 2

** Using vlocal for PAOs with L= 2
Split based on tail norm

   izeta = 1
                     rc =    5.984425
                 energy =    1.076317
                kinetic =    2.134413
    potential(screened) =   -1.058097
       potential(ionic) =   -3.835567
atom: Total number of Sankey-type orbitals: 13

atm_pop: Valence configuration (for local Pseudopot. screening):
 2s( 2.00)                                                            
 2p( 2.00)                                                            
 3d( 0.00)                                                            
Vna: chval, zval:    4.00000   4.00000

Vna:  Cut-off radius for the neutral-atom potential:   5.984425
comcore: Pseudo-core radius Rcore=  1.671741

atom: _________________________________________________________________________

prinput: Basis input 

PAO.BasisType split     

%block ChemicalSpeciesLabel
    1    7 N                       # Species index, atomic number, species label
    2    6 C                       # Species index, atomic number, species label
%endblock ChemicalSpeciesLabel

%block PAO.Basis                 # Define Basis set
# WARNING: This information might be incomplete!
N                     2                    # Species label, number of l-shells
 n=2   0   2                         # n, l, Nzeta 
   4.265      2.697   
   1.000      1.000   
 n=2   1   2 P   1                   # n, l, Nzeta, Polarization, NzetaPol
   5.254      3.313   
   1.000      1.000   
C                     2                    # Species label, number of l-shells
 n=2   0   2                         # n, l, Nzeta 
   4.859      3.157   
   1.000      1.000   
 n=2   1   2 P   1                   # n, l, Nzeta, Polarization, NzetaPol
   5.984      3.889   
   1.000      1.000   
%endblock PAO.Basis

prinput: ----------------------------------------------------------------------

coor:   Atomic-coordinates input format  =     Cartesian coordinates
coor:                                          (in Angstroms)

siesta: Atomic coordinates (Bohr) and species
siesta:      5.64111   1.20787   0.00000  1        1
siesta:      1.07440   4.36501   0.23198  1        2
siesta:      2.41901   1.14746   0.10674  2        3

siesta: System type = bulk      

initatomlists: Number of atoms, orbitals, and projectors:      3    39    24

siesta: ******************** Simulation parameters ****************************
siesta:
siesta: The following are some of the parameters of the simulation.
siesta: A complete list of the parameters used, including default values,
siesta: can be found in file out.fdf
siesta:
redata: Spin configuration                          = none
redata: Number of spin components                   = 1
redata: Time-Reversal Symmetry                      = T
redata: Spin spiral                                 = F
redata: Long output                                 =   F
redata: Number of Atomic Species                    =        2
redata: Charge density info will appear in .RHO file
redata: Write Mulliken Pop.                         = NO
redata: Matel table size (NRTAB)                    =     1024
redata: Mesh Cutoff                                 =   400.0000 Ry
redata: Net charge of the system                    =     0.0000 |e|
redata: Min. number of SCF Iter                     =        0
redata: Max. number of SCF Iter                     =     1000
redata: SCF convergence failure will abort job
redata: SCF mix quantity                            = Hamiltonian
redata: Mix DM or H after convergence               =   F
redata: Recompute H after scf cycle                 =   F
redata: Mix DM in first SCF step                    =   T
redata: Write Pulay info on disk                    =   F
redata: New DM Occupancy tolerance                  = 0.000000000001
redata: No kicks to SCF
redata: DM Mixing Weight for Kicks                  =     0.5000
redata: Require Harris convergence for SCF          =   F
redata: Harris energy tolerance for SCF             =     0.000100 eV
redata: Require DM convergence for SCF              =   T
redata: DM tolerance for SCF                        =     0.000010
redata: Require EDM convergence for SCF             =   F
redata: EDM tolerance for SCF                       =     0.001000 eV
redata: Require H convergence for SCF               =   T
redata: Hamiltonian tolerance for SCF               =     0.001000 eV
redata: Require (free) Energy convergence for SCF   =   F
redata: (free) Energy tolerance for SCF             =     0.000100 eV
redata: Using DFT-D3 dispersion                     =   F
redata: Using Saved Data (generic)                  =   F
redata: Use continuation files for DM               =   T
redata: Neglect nonoverlap interactions             =   F
redata: Method of Calculation                       = Diagonalization
redata: Electronic Temperature                      =    50.0000 K
redata: Fix the spin of the system                  =   F
redata: Max. number of TDED Iter                    =        1
redata: Number of TDED substeps                     =        3
redata: Dynamics option                             = Single-point calculation
mix.SCF: Pulay mixing                            = Pulay
mix.SCF:    Variant                              = stable
mix.SCF:    History steps                        = 10
mix.SCF:    Linear mixing weight                 =     0.025000
mix.SCF:    Mixing weight                        =     0.025000
mix.SCF:    SVD condition                        = 0.1000E-07
redata: ***********************************************************************

%block SCF.Mixers
  Pulay
%endblock SCF.Mixers

%block SCF.Mixer.Pulay
  # Mixing method
  method pulay
  variant stable

  # Mixing options
  weight 0.0250
  weight.linear 0.0250
  history 10
%endblock SCF.Mixer.Pulay

DM_history_depth set to one: no extrapolation allowed by default for geometry relaxation
Size of DM history Fstack: 1
Total number of electrons:    14.000000
Total ionic charge:    14.000000

* ProcessorY, Blocksize:    6   1


* Orbital distribution balance (max,min):     2     1

k-point displ. along   1 input, could be:     0.00    0.50
k-point displ. along   2 input, could be:     0.00    0.50
k-point displ. along   3 input, could be:     0.00    0.50
 Kpoints in:         1008 . Kpoints trimmed:          948

siesta: k-grid: Number of k-points = 948
siesta: k-points from Monkhorst-Pack grid
siesta: k-cutoff (effective) =    21.600 Ang
siesta: k-point supercell and displacements
siesta: k-grid:    12     0     0      0.000
siesta: k-grid:     0    12     0      0.000
siesta: k-grid:     0     0    12      0.000

diag: Algorithm                                     = D&C
diag: Parallel over k                               =   F
diag: Use parallel 2D distribution                  =   T
diag: Parallel block-size                           = 1
diag: Parallel distribution                         =     4 x     6
diag: Used triangular part                          = Lower
diag: Absolute tolerance                            =  0.100E-15
diag: Orthogonalization factor                      =  0.100E-05
diag: Memory factor                                 =  1.0000

superc: Internal auxiliary supercell:     5 x     5 x     5  =     125
superc: Number of atoms, orbitals, and projectors:    375   4875   3000


ts: **************************************************************
ts: Save H and S matrices                           =    F
ts: Save DM and EDM matrices                        =    F
ts: Only save the overlap matrix S                  =    F
ts: **************************************************************

************************ Begin: TS CHECKS AND WARNINGS ************************
************************ End: TS CHECKS AND WARNINGS **************************


                     ====================================
                        Single-point calculation
                     ====================================

superc: Internal auxiliary supercell:     5 x     5 x     5  =     125
superc: Number of atoms, orbitals, and projectors:    375   4875   3000

outcell: Unit cell vectors (Ang):
        3.599990    0.000000    0.000000
        0.000000    3.599990    0.000000
        0.000000    0.000000    3.599990

outcell: Cell vector modules (Ang)   :    3.599990    3.599990    3.599990
outcell: Cell angles (23,13,12) (deg):     90.0000     90.0000     90.0000
outcell: Cell volume (Ang**3)        :     46.6556
<dSpData1D:S at geom step 0
  <sparsity:sparsity for geom step 0
    nrows_g=39 nrows=2 sparsity=.6982 nnzs=1062, refcount: 7>
  <dData1D:(new from dSpData1D) n=1062, refcount: 1>
refcount: 1>
new_DM -- step:     1
Initializing Density Matrix...

Attempting to read DM from file... Failed...
DM filled with atomic data:
<dSpData2D:DM initialized from atoms
  <sparsity:sparsity for geom step 0
    nrows_g=39 nrows=2 sparsity=.6982 nnzs=1062, refcount: 8>
  <dData2D:DM n=1062 m=1, refcount: 1>
refcount: 1>
No. of atoms with KB's overlaping orbs in proc 0. Max # of overlaps:      12     129

InitMesh: MESH = 48 x 48 x 48 = 110592
InitMesh: Mesh cutoff (required, used) =   400.000   491.340 Ry
New grid distribution [1]: sub = 2
New grid distribution [2]: sub = 2
New grid distribution [3]: sub = 2
Setting up quadratic distribution...

stepf: Fermi-Dirac step function

siesta: Program's energy decomposition (eV):
siesta: Ebs     =      -177.902875
siesta: Eions   =      1181.000621
siesta: Ena     =       265.085520
siesta: Ekin    =       423.415377
siesta: Enl     =       -34.223174
siesta: Eso     =         0.000000
siesta: Edftu   =         0.000000
siesta: DEna    =        13.647415
siesta: DUscf   =         1.362629
siesta: DUext   =         0.000000
siesta: Ex      =      -184.689089
siesta: Ec      =       -17.346999
siesta: Exc     =      -202.036089
siesta: EbV     =         0.000000
siesta: eta*DQ  =         0.000000
siesta: Emadel  =         0.000000
siesta: Emeta   =         0.000000
siesta: Emolmec =         0.000000
siesta: Ekinion =         0.000000
siesta: Eharris =      -715.898407
siesta: Etot    =      -713.748943
siesta: FreeEng =      -713.749053

        iscf     Eharris(eV)        E_KS(eV)     FreeEng(eV)     dDmax    Ef(eV) dHmax(eV)
   scf:    1     -715.898407     -713.748943     -713.749053  0.814532 -5.853791  3.695076
             Section          Calls    Walltime % sect.
 IterSCF                          1       5.754  100.00
  compute_dm                      1       5.725   99.51
  setup_H                         1       0.027    0.46
  MIXER                           1       0.000    0.00
timer: Routine,Calls,Time,% = IterSCF        1       5.754  88.47
   scf:    2     -714.007202     -713.881463     -713.881580  0.014880 -5.853911  3.348075
   scf:    3     -714.357636     -714.340804     -714.340938  0.146680 -5.891193  1.465835
   scf:    4     -713.767558     -714.174176     -714.174344  0.077117 -6.000957  2.151694
   scf:    5     -713.859710     -714.044601     -714.044731  0.060291 -6.247075  2.135041
   scf:    6     -714.493137     -714.404081     -714.404190  0.114570 -6.288431  0.144861
   scf:    7     -714.404441     -714.404265     -714.404375  0.001859 -6.294431  0.132848
   scf:    8     -714.405746     -714.405634     -714.405754  0.010215 -6.304407  0.021976
   scf:    9     -714.405672     -714.405659     -714.405778  0.000409 -6.304708  0.011570
   scf:   10     -714.405624     -714.405649     -714.405767  0.000448 -6.303102  0.022626
   scf:   11     -714.405640     -714.405669     -714.405788  0.001199 -6.302922  0.010996
   scf:   12     -714.405682     -714.405679     -714.405799  0.000422 -6.303125  0.002895
mix: Pulay -- inversion failed, > SVD [rank/size] 7 / 9
   scf:   13     -714.405680     -714.405680     -714.405799  0.000098 -6.302782  0.000712
   scf:   14     -714.405679     -714.405679     -714.405799  0.000053 -6.302859  0.000858
   scf:   15     -714.405680     -714.405680     -714.405799  0.000053 -6.302766  0.000103
   scf:   16     -714.405680     -714.405680     -714.405799  0.000006 -6.302756  0.000071

SCF Convergence by DM+H criterion
max |DM_out - DM_in|         :     0.0000059382
max |H_out - H_in|      (eV) :     0.0000709704
SCF cycle converged after 16 iterations

Using DM_out to compute the final energy and forces
No. of atoms with KB's overlaping orbs in proc 0. Max # of overlaps:      12     129

siesta: E_KS(eV) =             -714.4057

siesta: E_KS - E_eggbox =      -714.4057

siesta: Atomic forces (eV/Ang):
----------------------------------------
   Tot   -0.000998   -0.000323   -0.000880
----------------------------------------
   Max    3.155771
   Res    1.721397    sqrt( Sum f_i^2 / 3N )
----------------------------------------
   Max    3.155771    constrained

Stress tensor Voigt[x,y,z,yz,xz,xy] (kbar):      448.97      432.62       18.04        7.48       -7.86       10.70
(Free)E + p*V (eV/cell)     -723.1383
Target enthalpy (eV/cell)     -714.4058

siesta: Program's energy decomposition (eV):
siesta: Ebs     =      -177.928986
siesta: Eions   =      1181.000621
siesta: Ena     =       265.085520
siesta: Ekin    =       425.616613
siesta: Enl     =       -32.761168
siesta: Eso     =         0.000000
siesta: Edftu   =         0.000000
siesta: DEna    =        10.770458
siesta: DUscf   =         0.283965
siesta: DUext   =         0.000000
siesta: Ex      =      -185.046547
siesta: Ec      =       -17.353898
siesta: Exc     =      -202.400445
siesta: EbV     =         0.000000
siesta: eta*DQ  =         0.000000
siesta: Emadel  =         0.000000
siesta: Emeta   =         0.000000
siesta: Emolmec =         0.000000
siesta: Ekinion =         0.000000
siesta: Eharris =      -714.405680
siesta: Etot    =      -714.405680
siesta: FreeEng =      -714.405799

siesta: Final energy (eV):
siesta:  Band Struct. =    -177.928986
siesta:       Kinetic =     425.616613
siesta:       Hartree =     200.016919
siesta:         Edftu =       0.000000
siesta:       Eso     =       0.000000
siesta:    Ext. field =       0.000000
siesta:         Exch. =    -185.046547
siesta:         Corr. =     -17.353898
siesta:     Bulk bias =       0.000000
siesta:   Exch.-corr. =    -202.400445
siesta:  Ion-electron =    -781.941377
siesta:       Ion-ion =    -355.697390
siesta:       Ekinion =       0.000000
siesta: D3 dispersion =       0.000000
siesta:         Total =    -714.405680
siesta:         Fermi =      -6.302756

siesta: Atomic forces (eV/Ang):
siesta:      1   -3.155771    0.735471    0.088871
siesta:      2    0.781021   -2.563509   -0.057735
siesta:      3    2.373752    1.827714   -0.032016
siesta: ----------------------------------------
siesta:    Tot   -0.000998   -0.000323   -0.000880

siesta: Stress tensor (static) (eV/Ang**3):
siesta:     0.280227    0.006675   -0.004907
siesta:     0.006675    0.270020    0.004669
siesta:    -0.004907    0.004669    0.011262

siesta: Cell volume =         46.655611 Ang**3

siesta: Pressure (static):
siesta:                Solid            Molecule  Units
siesta:          -0.00203854         -0.00123813  Ry/Bohr**3
siesta:          -0.18716969         -0.11368020  eV/Ang**3
siesta:        -299.87890842       -182.13575443  kBar
(Free)E+ p_basis*V_orbitals  =        -713.258404
(Free)Eharris+ p_basis*V_orbitals  =        -713.258404

cite: Please see "aiida.bib" for an exhaustive BiBTeX file.
cite: Please clearly indicate Siesta version in published work: NO_VERSION_LABEL_AVAILABLE
cite: This calculation has made use of the following articles
cite: which are encouraged to be cited in a published work.
        Primary SIESTA paper
          DOI: www.doi.org/10.1088/0953-8984/14/11/302


             Section          Calls    Walltime       %
 global_section                   1      93.812  100.00
  siesta                          1      93.812  100.00
   Setup                          1       0.205    0.22
    bands                         1       0.000    0.00
    KSV_init                      1       0.000    0.00
   IterGeom                       1      93.554   99.72
    geom_init                     1       0.544    0.58
     state_init                   1       0.042    0.04
      hsparse                     1       0.000    0.00
      overlap                     1       0.020    0.02
     Setup_H0                     1       0.475    0.51
      naefs                       1       0.000    0.00
      MolMec                      1       0.000    0.00
      kinefsm                     1       0.016    0.02
      nlefsm                      1       0.209    0.22
      DHSCF_Init                  1       0.250    0.27
       DHSCF1                     1       0.030    0.03
        INITMESH                  1       0.000    0.00
       DHSCF2                     1       0.219    0.23
        REMESH                    1       0.115    0.12
         INITMESH                 2       0.091    0.10
          SPLOAD                  2       0.091    0.10
        REORD                     2       0.000    0.00
        PHION                     1       0.070    0.07
        COMM_BSC                  1       0.000    0.00
        POISON                    1       0.001    0.00
         fft                      2       0.001    0.00
     setup_H                      1       0.028    0.03
      DHSCF                       1       0.028    0.03
       DHSCF3                     1       0.028    0.03
        rhoofd                    1       0.013    0.01
        COMM_BSC                  2       0.000    0.00
        POISON                    1       0.001    0.00
         fft                      2       0.001    0.00
        XC                        1       0.005    0.01
         COMM_BSC                 2       0.000    0.00
         GXC-CellXC               1       0.005    0.01
          gridxc@cellXC           1       0.005    0.01
        vmat                      1       0.009    0.01
    IterSCF                      16      92.916   99.04
     compute_dm                  16      92.481   98.58
      diagon                     16      92.481   98.58
       c-eigval               15168      44.989   47.96
        c-buildHS             15168       0.242    0.26
        cdiag                 15168      44.736   47.69
         cdiag1               15168       4.177    4.45
         cdiag2               15168       9.396   10.02
         cdiag3               15168      30.271   32.27
       c-eigvec               15168      46.809   49.90
        cdiag                 15168      46.563   49.63
         cdiag1               15168       4.162    4.44
         cdiag2               15168       9.399   10.02
         cdiag3               15168      30.321   32.32
         cdiag4               15168       1.691    1.80
       c-buildD               15168       0.578    0.62
     setup_H                     16       0.424    0.45
      DHSCF                      16       0.423    0.45
       DHSCF3                    16       0.423    0.45
        rhoofd                   16       0.184    0.20
        COMM_BSC                 32       0.012    0.01
        POISON                   16       0.014    0.02
         fft                     32       0.014    0.01
        XC                       16       0.092    0.10
         COMM_BSC                32       0.002    0.00
         GXC-CellXC              16       0.090    0.10
          gridxc@cellXC          16       0.090    0.10
        vmat                     16       0.119    0.13
     MIXER                       15       0.001    0.00
    PostSCF                       1       0.092    0.10
     naefs                        1       0.000    0.00
     kinefsm                      1       0.000    0.00
     nlefsm                       1       0.003    0.00
     DHSCF                        1       0.075    0.08
      DHSCF3                      1       0.027    0.03
       rhoofd                     1       0.010    0.01
       COMM_BSC                   2       0.000    0.00
       POISON                     1       0.001    0.00
        fft                       2       0.001    0.00
       XC                         1       0.007    0.01
        COMM_BSC                  2       0.000    0.00
        GXC-CellXC                1       0.007    0.01
         gridxc@cellXC            1       0.007    0.01
       vmat                       1       0.009    0.01
      DHSCF4                      1       0.047    0.05
       REORD                     10       0.000    0.00
       COMM_BSC                   2       0.003    0.00
       dfscf                      1       0.034    0.04
     overfsm                      1       0.000    0.00
     MolMec                       1       0.000    0.00
     writeHSX                     1       0.001    0.00
    state_analysis                1       0.000    0.00
    siesta_move                   1       0.000    0.00
   Analysis                       1       0.052    0.06
    optical                       1       0.000    0.00

>> End of run:  14-APR-2024  22:33:34
Job completed
