Siesta Version  : NO_VERSION_LABEL_AVAILABLE
Architecture    : ----
Compiler version: GNU-11.4.0
Compiler flags  : -fallow-argument-mismatch;-O3 -march=native
PP flags        : ----
Libraries       : ----
Parallelisations: MPI

Runtime information:
* Directory : /home/ICN2/jgarridoa/aiida_run/d7/d7/f862-0230-4fb3-aa99-c376bdd1347a
* Running on 24 nodes in parallel.
>> Start of run:  14-APR-2024  14:46:59

                           *********************** 
                           *  WELCOME TO SIESTA  * 
                           *********************** 

reinit: Reading from standard input
reinit: Dumping input in INPUT_TMP.53537
************************** Dump of input data file ****************************
atomiccoordinatesformat Ang
cdfsave True
dminitspinaf False
dmmixingweight 0.025
dmmixscf1 True
dmnumberpulay 10
dmtolerance 1e-05
electronictemperature 50.000 K
geometrymustconverge T
latticeconstant 1.0 Ang
maxscfiterations 1000
meshcutoff 600 Ry
noncollinearspin False
numberofatoms 64
numberofspecies 2
savehs True
solutionmethod diagon
spinorbit False
spinpolarized False
systemlabel aiida
systemname aiida
usetreetimer T
writedmhsnetcdf True
writeorbmom True
xcauthors PBEsol
xcfunctional GGA
xmlwrite T
#
# -- Basis Set Info follows
#
PAO-BasisSize DZP
PAO-SplitNorm 0.15
PAO-EnergyShift 0.005 Ry
#
# -- Structural Info follows
#
%block chemicalspecieslabel
    1     5      B
    2     7      N
%endblock chemicalspecieslabel
%block lattice-vectors
      7.6711700000       0.0000000000       0.0000000000
      0.0000000000       7.6711700000       0.0000000000
      0.0000000000       0.0000000000       7.6711700000
%endblock lattice-vectors
%block atomiccoordinatesandatomicspecies
      2.8601957345       5.4473745287       3.6148854391    1      B      1
      0.3273288239       0.4730043422       6.8642396277    1      B      2
      4.0203834853       2.9913727415       4.4149884701    1      B      3
      3.7148407842       6.3449014187       7.3961585555    1      B      4
      5.0180958555       6.4058872202       3.0072520634    1      B      5
      6.0865364131       5.9900330945       0.8390725746    1      B      6
      5.6137622060       0.1685356049       6.9898933923    1      B      7
      0.8867872520       4.7502185991       1.7582321640    1      B      8
      0.6872601203       4.1156594167       4.1751876959    1      B      9
      4.5824501112       1.5242614790       1.8682367418    1      B     10
      6.1636316716       4.5244560660       3.6404304352    1      B     11
      2.6108827095       2.0596324333       6.2208585998    1      B     12
      1.2813155251       6.3970653747       0.5288504598    1      B     13
      2.6584439635       2.8451602413       3.1743301460    1      B     14
      1.6398660109       2.8674066343       0.7947332120    1      B     15
      7.2022313779       6.5005494580       4.9077844309    1      B     16
      0.3734325556       6.5510257566       2.6226963113    1      B     17
      3.8437931519       0.6542740893       5.0366600869    1      B     18
      5.2668718986       2.6660384218       6.7494022128    1      B     19
      5.2068066375       5.3763394945       5.0226218458    1      B     20
      0.0967334537       2.0223505471       3.2195133373    1      B     21
      1.5444366561       0.5230203706       4.8033030955    1      B     22
      2.8676367694       0.7230844842       0.6296496336    1      B     23
      7.4744044895       4.9284198782       6.5893816066    1      B     24
      3.0446873730       6.4280569015       5.5242396521    1      B     25
      4.1095991924       4.0764597380       0.9569017458    1      B     26
      6.8576424215       0.7049805230       1.4233855935    1      B     27
      2.5332504691       0.2770059487       2.6337427961    1      B     28
      2.4176459372       4.4332458547       6.3205070981    1      B     29
      7.6453181571       2.5126150218       5.9077214404    1      B     30
      5.9925645806       0.8828749553       4.3365891127    1      B     31
      6.8292590925       3.5153903642       0.9726276443    1      B     32
      3.0388572838       6.5870035439       1.3054029989    2      N     33
      5.2523733873       7.4794674617       1.1977764838    2      N     34
      1.6822875810       1.5476585475       7.4936591262    2      N     35
      4.0472325803       0.1794286663       3.4119062809    2      N     36
      2.1911929988       4.7727718389       0.3780352576    2      N     37
      0.8084646063       0.1357029973       1.4769303601    2      N     38
      4.9581073061       5.2314310932       7.5395327228    2      N     39
      5.3715066574       2.9520963511       0.8038619043    2      N     40
      7.0323149624       3.1843026670       4.3052140274    2      N     41
      3.1903628913       2.6642740527       1.5926883154    2      N     42
      6.0222520085       1.5778829573       2.7506514269    2      N     43
      4.9436855065       3.4790290184       3.1072841202    2      N     44
      5.5887541918       6.9315925003       5.5703433838    2      N     45
      3.6232470144       4.8123550761       4.9111597457    2      N     46
      6.6211402504       7.0432080238       3.3582848026    2      N     47
      1.7618376139       6.6644823609       3.5892637313    2      N     48
      5.1292511088       2.0137588367       5.1643083557    2      N     49
      7.5478175864       0.9216910755       5.1469715115    2      N     50
      0.2361953243       3.5430065762       7.3087072175    2      N     51
      1.6857396075       3.0960075003       5.3390576083    2      N     52
      0.7460212825       5.3798682327       5.2271352380    2      N     53
      0.3154385104       2.5773596966       1.7171914045    2      N     54
      3.9615456114       0.6543508010       7.0310875752    2      N     55
      5.8891572090       4.3286878076       6.1240484344    2      N     56
      4.0964814917       5.0858322866       2.2969017214    2      N     57
      7.4067447701       6.3552574982       7.3396220326    2      N     58
      3.7227420893       3.2298694168       6.7544651850    2      N     59
      1.8130043178       4.3111975400       3.0419257518    2      N     60
      6.7141148308       4.9211322667       2.0585584695    2      N     61
      1.7997331937       7.1939465143       6.2367379217    2      N     62
      1.6732356004       1.5455106199       3.4670619932    2      N     63
      6.7293804591       1.3464437584       7.4928152975    2      N     64
%endblock atomiccoordinatesandatomicspecies
#
# -- K-points Info follows
#
%block kgrid_monkhorst_pack
     8      0      0       0.0000000000
     0      8      0       0.0000000000
     0      0      8       0.0000000000
%endblock kgrid_monkhorst_pack
#
# -- Max wall-clock time block
#
maxwalltime 7200000
************************** End of input data file *****************************

reinit: -----------------------------------------------------------------------
reinit: System Name: aiida
reinit: -----------------------------------------------------------------------
reinit: System Label: aiida
reinit: -----------------------------------------------------------------------

initatom: Reading input for the pseudopotentials and atomic orbitals ----------
Species number:   1 Atomic number:    5 Label: B
Species number:   2 Atomic number:    7 Label: N


---- Processing specs for species: B
Ground state valence configuration:   2s02  2p01
Reading pseudopotential information in PSML from:
  B.psml
PSML file version: 1.1
Using libxc ids:  116 133
GGA--PBEsol XC_GGA_X_PBE_SOL--XC_GGA_C_PBE_SOL ps
PSML uuid: 4c4355a0-1d5f-11e8-6182-f22cff9f01b0

---- Processing specs for species: N
Ground state valence configuration:   2s02  2p03
Reading pseudopotential information in PSML from:
  N.psml
PSML file version: 1.1
Using libxc ids:  116 133
GGA--PBEsol XC_GGA_X_PBE_SOL--XC_GGA_C_PBE_SOL ps
PSML uuid: 56b43770-1d5f-11e8-525f-e1e3c77dc801

---- Pseudopotential check for B 

Pseudized shells:
2s( 2.00) rc: 1.21
2p( 1.00) rc: 1.21
Valence configuration for ps generation: 2s:2p: Total charge:   3.000000

---- Pseudopotential check for N 

Pseudized shells:
2s( 2.00) rc: 1.21
2p( 3.00) rc: 1.36
Valence configuration for ps generation: 2s:2p: Total charge:   5.000000
For B, standard SIESTA heuristics set lmxkb to 3
 (one more than the basis l, including polarization orbitals).
Use PS.lmax or PS.KBprojectors blocks to override.
For N, standard SIESTA heuristics set lmxkb to 3
 (one more than the basis l, including polarization orbitals).
Use PS.lmax or PS.KBprojectors blocks to override.
B pseudopotential only contains V_ls up to l=1 -- lmxkb reset.
N pseudopotential only contains V_ls up to l=1 -- lmxkb reset.

<basis_specs>
===============================================================================
B                    Z=   5    Mass=  10.810        Charge= 0.17977+309
Lmxo=2 Lmxkb= 1    BasisType=split      Semic=F
L=0  Nsemic=0  Cnfigmx=2
          i=1  nzeta=2  polorb=0  (2s)
            splnorm:   0.15000    
               vcte:    40.000    
               rinn:  -0.90000    
               qcoe:    0.0000    
               qyuk:    0.0000    
               qwid:   0.10000E-01
                rcs:    0.0000      0.0000    
            lambdas:    1.0000      1.0000    
L=1  Nsemic=0  Cnfigmx=2
          i=1  nzeta=2  polorb=1  (2p)  (to be polarized perturbatively)
            splnorm:   0.15000    
               vcte:    40.000    
               rinn:  -0.90000    
               qcoe:    0.0000    
               qyuk:    0.0000    
               qwid:   0.10000E-01
                rcs:    0.0000      0.0000    
            lambdas:    1.0000      1.0000    
L=2  Nsemic=0  Cnfigmx=3
          i=1  nzeta=0  polorb=0  (3d)  (perturbative polarization orbital) (from 2p)
-------------------------------------------------------------------------------
L=0  Nkbl=1  erefs: 0.17977+309
L=1  Nkbl=1  erefs: 0.17977+309
===============================================================================
</basis_specs>

Using PAO.SplitTailNorm
atom: Called for B                     (Z =   5)
NOTE: B pseudopotential has channels up to l= 1
NOTE: PAOs with higher l will be generated with V_local
Maximum radius (at nrval) set to   50.00000 8518

read_vps: Pseudopotential generation method:
read_vps: ONCVPSP-3.Hamann's oncvpsp                        
Valence charge in pseudo generation:    3.00000

read_vps: Pseudopotential includes a core correction:
read_vps: Pseudo-core for xc-correction

xc_check: Exchange-correlation functional:
xc_check: GGA PBEsol
Got Vlocal (oncv-fit) from psml data
Choosing vlocal chloc cutoff:  3.201794
qtot up to nchloc:    3.00023194
atom: Maximum radius for chlocal:    3.20179
atom: Maximum radius for r*vlocal+2*Zval:    3.20179
Reading KB projs from B psml data
Using scalar-relativistic projectors in PSML file

PSML: Kleinman-Bylander projectors: 
   l= 0   rc=  1.223468   Ekb= 16.933205
   l= 0   rc=  1.223468   Ekb=  2.495260
   l= 1   rc=  1.223468   Ekb= -7.218359
   l= 1   rc=  1.223468   Ekb= -1.645242

PSML: Total number of  Kleinman-Bylander projectors:   8
atom: -------------------------------------------------------------------------

atom: SANKEY-TYPE ORBITALS:
atom: Selected multiple-zeta basis: split     

SPLIT: Orbitals with angular momentum L= 0

SPLIT: Basis orbitals for state 2s

SPLIT: PAO cut-off radius determined from an
SPLIT: energy shift=  0.005000 Ry
Split based on tail norm

   izeta = 1
                 lambda =    1.000000
                     rc =    5.714927
                 energy =   -0.682223
                kinetic =    0.604116
    potential(screened) =   -1.286339
       potential(ionic) =   -3.302390

   izeta = 2
                 rmatch =    3.823698
              splitnorm =    0.150000
                 energy =   -0.502064
                kinetic =    1.116406
    potential(screened) =   -1.618470
       potential(ionic) =   -3.792969

SPLIT: Orbitals with angular momentum L= 1

SPLIT: Basis orbitals for state 2p

SPLIT: PAO cut-off radius determined from an
SPLIT: energy shift=  0.005000 Ry
Split based on tail norm

   izeta = 1
                 lambda =    1.000000
                     rc =    7.066857
                 energy =   -0.255540
                kinetic =    1.512761
    potential(screened) =   -1.768301
       potential(ionic) =   -3.690166

   izeta = 2
                 rmatch =    4.748011
              splitnorm =    0.150000
                 energy =   -0.176810
                kinetic =    2.206388
    potential(screened) =   -2.383198
       potential(ionic) =   -4.488680
*Note: V_local used for l= 2

** Using vlocal for PAOs with L= 2

POLgen: Perturbative polarization orbital with L=  2

POLgen: Polarization orbital for state 2p
*Note: V_local used for lpol= 2

** Using vlocal for PAOs with L= 2
Split based on tail norm

   izeta = 1
                     rc =    7.066857
                 energy =    0.676401
                kinetic =    1.417761
    potential(screened) =   -0.741360
       potential(ionic) =   -2.355753
atom: Total number of Sankey-type orbitals: 13

atm_pop: Valence configuration (for local Pseudopot. screening):
 2s( 2.00)                                                            
 2p( 1.00)                                                            
 3d( 0.00)                                                            
Vna: chval, zval:    3.00000   3.00000

Vna:  Cut-off radius for the neutral-atom potential:   7.066857
comcore: Pseudo-core radius Rcore=  1.975419

atom: _________________________________________________________________________

<basis_specs>
===============================================================================
N                    Z=   7    Mass=  14.007        Charge= 0.17977+309
Lmxo=2 Lmxkb= 1    BasisType=split      Semic=F
L=0  Nsemic=0  Cnfigmx=2
          i=1  nzeta=2  polorb=0  (2s)
            splnorm:   0.15000    
               vcte:    40.000    
               rinn:  -0.90000    
               qcoe:    0.0000    
               qyuk:    0.0000    
               qwid:   0.10000E-01
                rcs:    0.0000      0.0000    
            lambdas:    1.0000      1.0000    
L=1  Nsemic=0  Cnfigmx=2
          i=1  nzeta=2  polorb=1  (2p)  (to be polarized perturbatively)
            splnorm:   0.15000    
               vcte:    40.000    
               rinn:  -0.90000    
               qcoe:    0.0000    
               qyuk:    0.0000    
               qwid:   0.10000E-01
                rcs:    0.0000      0.0000    
            lambdas:    1.0000      1.0000    
L=2  Nsemic=0  Cnfigmx=3
          i=1  nzeta=0  polorb=0  (3d)  (perturbative polarization orbital) (from 2p)
-------------------------------------------------------------------------------
L=0  Nkbl=1  erefs: 0.17977+309
L=1  Nkbl=1  erefs: 0.17977+309
===============================================================================
</basis_specs>

Using PAO.SplitTailNorm
atom: Called for N                     (Z =   7)
NOTE: N pseudopotential has channels up to l= 1
NOTE: PAOs with higher l will be generated with V_local
Maximum radius (at nrval) set to   50.00000 8518

read_vps: Pseudopotential generation method:
read_vps: ONCVPSP-3.Hamann's oncvpsp                        
Valence charge in pseudo generation:    5.00000

read_vps: Pseudopotential includes a core correction:
read_vps: Pseudo-core for xc-correction

xc_check: Exchange-correlation functional:
xc_check: GGA PBEsol
Got Vlocal (oncv-fit) from psml data
Choosing vlocal chloc cutoff:  6.038618
qtot up to nchloc:    4.99997633
atom: Maximum radius for chlocal:    6.03862
atom: Maximum radius for r*vlocal+2*Zval:    6.03862
Reading KB projs from N psml data
Using scalar-relativistic projectors in PSML file

PSML: Kleinman-Bylander projectors: 
   l= 0   rc=  1.214864   Ekb= 14.928379
   l= 0   rc=  1.221004   Ekb=  1.251736
   l= 1   rc=  1.375180   Ekb= -8.619428
   l= 1   rc=  1.375180   Ekb= -2.025883

PSML: Total number of  Kleinman-Bylander projectors:   8
atom: -------------------------------------------------------------------------

atom: SANKEY-TYPE ORBITALS:
atom: Selected multiple-zeta basis: split     

SPLIT: Orbitals with angular momentum L= 0

SPLIT: Basis orbitals for state 2s

SPLIT: PAO cut-off radius determined from an
SPLIT: energy shift=  0.005000 Ry
Split based on tail norm

   izeta = 1
                 lambda =    1.000000
                     rc =    4.265195
                 energy =   -1.350827
                kinetic =    1.238925
    potential(screened) =   -2.589752
       potential(ionic) =   -8.091187

   izeta = 2
                 rmatch =    2.696970
              splitnorm =    0.150000
                 energy =   -1.041987
                kinetic =    2.172223
    potential(screened) =   -3.214210
       potential(ionic) =   -9.191634

SPLIT: Orbitals with angular momentum L= 1

SPLIT: Basis orbitals for state 2p

SPLIT: PAO cut-off radius determined from an
SPLIT: energy shift=  0.005000 Ry
Split based on tail norm

   izeta = 1
                 lambda =    1.000000
                     rc =    5.253677
                 energy =   -0.511511
                kinetic =    3.468518
    potential(screened) =   -3.980029
       potential(ionic) =   -9.293867

   izeta = 2
                 rmatch =    3.312873
              splitnorm =    0.150000
                 energy =   -0.376057
                kinetic =    4.835938
    potential(screened) =   -5.211995
       potential(ionic) =  -11.044105
*Note: V_local used for l= 2

** Using vlocal for PAOs with L= 2

POLgen: Perturbative polarization orbital with L=  2

POLgen: Polarization orbital for state 2p
*Note: V_local used for lpol= 2

** Using vlocal for PAOs with L= 2
Split based on tail norm

   izeta = 1
                     rc =    5.253677
                 energy =    1.558482
                kinetic =    2.921564
    potential(screened) =   -1.363082
       potential(ionic) =   -5.578203
atom: Total number of Sankey-type orbitals: 13

atm_pop: Valence configuration (for local Pseudopot. screening):
 2s( 2.00)                                                            
 2p( 3.00)                                                            
 3d( 0.00)                                                            
Vna: chval, zval:    5.00000   5.00000

Vna:  Cut-off radius for the neutral-atom potential:   5.253677
comcore: Pseudo-core radius Rcore=  1.572221

atom: _________________________________________________________________________

prinput: Basis input 

PAO.BasisType split     

%block ChemicalSpeciesLabel
    1    5 B                       # Species index, atomic number, species label
    2    7 N                       # Species index, atomic number, species label
%endblock ChemicalSpeciesLabel

%block PAO.Basis                 # Define Basis set
# WARNING: This information might be incomplete!
B                     2                    # Species label, number of l-shells
 n=2   0   2                         # n, l, Nzeta 
   5.715      3.824   
   1.000      1.000   
 n=2   1   2 P   1                   # n, l, Nzeta, Polarization, NzetaPol
   7.067      4.748   
   1.000      1.000   
N                     2                    # Species label, number of l-shells
 n=2   0   2                         # n, l, Nzeta 
   4.265      2.697   
   1.000      1.000   
 n=2   1   2 P   1                   # n, l, Nzeta, Polarization, NzetaPol
   5.254      3.313   
   1.000      1.000   
%endblock PAO.Basis

prinput: ----------------------------------------------------------------------

coor:   Atomic-coordinates input format  =     Cartesian coordinates
coor:                                          (in Angstroms)

siesta: Atomic coordinates (Bohr) and species
siesta:      5.40499  10.29405   6.83114  1        1
siesta:      0.61856   0.89385  12.97153  1        2
siesta:      7.59742   5.65288   8.34312  1        3
siesta:      7.02003  11.99013  13.97671  1        4
siesta:      9.48283  12.10537   5.68288  1        5
siesta:     11.50189  11.31952   1.58562  1        6
siesta:     10.60847   0.31849  13.20898  1        7
siesta:      1.67579   8.97661   3.32258  1        8
siesta:      1.29873   7.77747   7.88996  1        9
siesta:      8.65958   2.88044   3.53046  1       10
siesta:     11.64758   8.54998   6.87942  1       11
siesta:      4.93385   3.89214  11.75572  1       12
siesta:      2.42134  12.08870   0.99938  1       13
siesta:      5.02373   5.37657   5.99861  1       14
siesta:      3.09890   5.41861   1.50183  1       15
siesta:     13.61024  12.28426   9.27437  1       16
siesta:      0.70569  12.37964   4.95618  1       17
siesta:      7.26372   1.23640   9.51791  1       18
siesta:      9.95295   5.03808  12.75452  1       19
siesta:      9.83944  10.15981   9.49138  1       20
siesta:      0.18280   3.82169   6.08400  1       21
siesta:      2.91856   0.98837   9.07693  1       22
siesta:      5.41905   1.36643   1.18987  1       23
siesta:     14.12458   9.31336  12.45213  1       24
siesta:      5.75363  12.14727  10.43930  1       25
siesta:      7.76602   7.70339   1.80828  1       26
siesta:     12.95907   1.33222   2.68981  1       27
siesta:      4.78715   0.52347   4.97705  1       28
siesta:      4.56869   8.37762  11.94403  1       29
siesta:     14.44756   4.74815  11.16398  1       30
siesta:     11.32431   1.66839   8.19497  1       31
siesta:     12.90543   6.64313   1.83800  1       32
siesta:      5.74261  12.44763   2.46685  2       33
siesta:      9.92555  14.13415   2.26347  2       34
siesta:      3.17906   2.92465  14.16096  2       35
siesta:      7.64816   0.33907   6.44757  2       36
siesta:      4.14075   9.01923   0.71438  2       37
siesta:      1.52778   0.25644   2.79099  2       38
siesta:      9.36946   9.88597  14.24765  2       39
siesta:     10.15068   5.57865   1.51908  2       40
siesta:     13.28915   6.01746   8.13568  2       41
siesta:      6.02891   5.03475   3.00974  2       42
siesta:     11.38041   2.98177   5.19798  2       43
siesta:      9.34221   6.57441   5.87192  2       44
siesta:     10.56121  13.09881  10.52642  2       45
siesta:      6.84694   9.09403   9.28075  2       46
siesta:     12.51214  13.30973   6.34624  2       47
siesta:      3.32939  12.59405   6.78273  2       48
siesta:      9.69288   3.80545   9.75913  2       49
siesta:     14.26331   1.74174   9.72637  2       50
siesta:      0.44634   6.69531  13.81145  2       51
siesta:      3.18559   5.85061  10.08936  2       52
siesta:      1.40978  10.16648   9.87785  2       53
siesta:      0.59609   4.87050   3.24502  2       54
siesta:      7.48624   1.23654  13.28683  2       55
siesta:     11.12889   8.18003  11.57277  2       56
siesta:      7.74123   9.61083   4.34052  2       57
siesta:     13.99672  12.00970  13.86988  2       58
siesta:      7.03496   6.10357  12.76409  2       59
siesta:      3.42608   8.14698   5.74841  2       60
siesta:     12.68784   9.29959   3.89011  2       61
siesta:      3.40100  13.59459  11.78573  2       62
siesta:      3.16196   2.92059   6.55180  2       63
siesta:     12.71669   2.54441  14.15937  2       64

siesta: System type = bulk      

initatomlists: Number of atoms, orbitals, and projectors:     64   832   512

siesta: ******************** Simulation parameters ****************************
siesta:
siesta: The following are some of the parameters of the simulation.
siesta: A complete list of the parameters used, including default values,
siesta: can be found in file out.fdf
siesta:
redata: Spin configuration                          = none
redata: Number of spin components                   = 1
redata: Time-Reversal Symmetry                      = T
redata: Spin spiral                                 = F
redata: Long output                                 =   F
redata: Number of Atomic Species                    =        2
redata: Charge density info will appear in .RHO file
redata: Write Mulliken Pop.                         = NO
redata: Matel table size (NRTAB)                    =     1024
redata: Mesh Cutoff                                 =   600.0000 Ry
redata: Net charge of the system                    =     0.0000 |e|
redata: Min. number of SCF Iter                     =        0
redata: Max. number of SCF Iter                     =     1000
redata: SCF convergence failure will abort job
redata: SCF mix quantity                            = Hamiltonian
redata: Mix DM or H after convergence               =   F
redata: Recompute H after scf cycle                 =   F
redata: Mix DM in first SCF step                    =   T
redata: Write Pulay info on disk                    =   F
redata: New DM Occupancy tolerance                  = 0.000000000001
redata: No kicks to SCF
redata: DM Mixing Weight for Kicks                  =     0.5000
redata: Require Harris convergence for SCF          =   F
redata: Harris energy tolerance for SCF             =     0.000100 eV
redata: Require DM convergence for SCF              =   T
redata: DM tolerance for SCF                        =     0.000010
redata: Require EDM convergence for SCF             =   F
redata: EDM tolerance for SCF                       =     0.001000 eV
redata: Require H convergence for SCF               =   T
redata: Hamiltonian tolerance for SCF               =     0.001000 eV
redata: Require (free) Energy convergence for SCF   =   F
redata: (free) Energy tolerance for SCF             =     0.000100 eV
redata: Using DFT-D3 dispersion                     =   F
redata: Using Saved Data (generic)                  =   F
redata: Use continuation files for DM               =   T
redata: Neglect nonoverlap interactions             =   F
redata: Method of Calculation                       = Diagonalization
redata: Electronic Temperature                      =    50.0000 K
redata: Fix the spin of the system                  =   F
redata: Max. number of TDED Iter                    =        1
redata: Number of TDED substeps                     =        3
redata: Dynamics option                             = Single-point calculation
mix.SCF: Pulay mixing                            = Pulay
mix.SCF:    Variant                              = stable
mix.SCF:    History steps                        = 10
mix.SCF:    Linear mixing weight                 =     0.025000
mix.SCF:    Mixing weight                        =     0.025000
mix.SCF:    SVD condition                        = 0.1000E-07
redata: ***********************************************************************

%block SCF.Mixers
  Pulay
%endblock SCF.Mixers

%block SCF.Mixer.Pulay
  # Mixing method
  method pulay
  variant stable

  # Mixing options
  weight 0.0250
  weight.linear 0.0250
  history 10
%endblock SCF.Mixer.Pulay

DM_history_depth set to one: no extrapolation allowed by default for geometry relaxation
Size of DM history Fstack: 1
Total number of electrons:   256.000000
Total ionic charge:   256.000000

* ProcessorY, Blocksize:    6  35


* Orbital distribution balance (max,min):    35    27

k-point displ. along   1 input, could be:     0.00    0.50
k-point displ. along   2 input, could be:     0.00    0.50
k-point displ. along   3 input, could be:     0.00    0.50
 Kpoints in:          320 . Kpoints trimmed:          296

siesta: k-grid: Number of k-points = 296
siesta: k-points from Monkhorst-Pack grid
siesta: k-cutoff (effective) =    30.685 Ang
siesta: k-point supercell and displacements
siesta: k-grid:     8     0     0      0.000
siesta: k-grid:     0     8     0      0.000
siesta: k-grid:     0     0     8      0.000

diag: Algorithm                                     = D&C
diag: Parallel over k                               =   F
diag: Use parallel 2D distribution                  =   T
diag: Parallel block-size                           = 35
diag: Parallel distribution                         =     4 x     6
diag: Used triangular part                          = Lower
diag: Absolute tolerance                            =  0.100E-15
diag: Orthogonalization factor                      =  0.100E-05
diag: Memory factor                                 =  1.0000

superc: Internal auxiliary supercell:     5 x     3 x     3  =      45
superc: Number of atoms, orbitals, and projectors:   2880  37440  23040


ts: **************************************************************
ts: Save H and S matrices                           =    F
ts: Save DM and EDM matrices                        =    F
ts: Only save the overlap matrix S                  =    F
ts: **************************************************************

************************ Begin: TS CHECKS AND WARNINGS ************************
************************ End: TS CHECKS AND WARNINGS **************************


                     ====================================
                        Single-point calculation
                     ====================================

superc: Internal auxiliary supercell:     5 x     3 x     3  =      45
superc: Number of atoms, orbitals, and projectors:   2880  37440  23040

outcell: Unit cell vectors (Ang):
        7.671170    0.000000    0.000000
        0.000000    7.671170    0.000000
        0.000000    0.000000    7.671170

outcell: Cell vector modules (Ang)   :    7.671170    7.671170    7.671170
outcell: Cell angles (23,13,12) (deg):     90.0000     90.0000     90.0000
outcell: Cell volume (Ang**3)        :    451.4242
<dSpData1D:S at geom step 0
  <sparsity:sparsity for geom step 0
    nrows_g=832 nrows=35 sparsity=.1214 nnzs=84048, refcount: 7>
  <dData1D:(new from dSpData1D) n=84048, refcount: 1>
refcount: 1>
new_DM -- step:     1
Initializing Density Matrix...

Attempting to read DM from file... Failed...
DM filled with atomic data:
<dSpData2D:DM initialized from atoms
  <sparsity:sparsity for geom step 0
    nrows_g=832 nrows=35 sparsity=.1214 nnzs=84048, refcount: 8>
  <dData2D:DM n=84048 m=1, refcount: 1>
refcount: 1>
No. of atoms with KB's overlaping orbs in proc 0. Max # of overlaps:     117     434

InitMesh: MESH = 120 x 120 x 120 = 1728000
InitMesh: Mesh cutoff (required, used) =   600.000   676.303 Ry
New grid distribution [1]: sub = 2
New grid distribution [2]: sub = 2
New grid distribution [3]: sub = 2
Setting up quadratic distribution...

stepf: Fermi-Dirac step function

siesta: Program's energy decomposition (eV):
siesta: Ebs     =     -3097.578503
siesta: Eions   =     19538.932793
siesta: Ena     =      4856.245836
siesta: Ekin    =      7863.064358
siesta: Enl     =      -817.383688
siesta: Eso     =         0.000000
siesta: Edftu   =         0.000000
siesta: DEna    =      -232.561572
siesta: DUscf   =        62.736093
siesta: DUext   =         0.000000
siesta: Ex      =     -3323.840741
siesta: Ec      =      -347.251099
siesta: Exc     =     -3671.091841
siesta: EbV     =         0.000000
siesta: eta*DQ  =         0.000000
siesta: Emadel  =         0.000000
siesta: Emeta   =         0.000000
siesta: Emolmec =         0.000000
siesta: Ekinion =         0.000000
siesta: Eharris =    -11267.041394
siesta: Etot    =    -11477.923607
siesta: FreeEng =    -11477.923607

        iscf     Eharris(eV)        E_KS(eV)     FreeEng(eV)     dDmax    Ef(eV) dHmax(eV)
   scf:    1   -11267.041394   -11477.923607   -11477.923607  1.657160 -6.369118 11.326635
             Section          Calls    Walltime % sect.
 IterSCF                          1     118.412  100.00
  compute_dm                      1     116.353   98.26
  setup_H                         1       2.037    1.72
  MIXER                           1       0.000    0.00
timer: Routine,Calls,Time,% = IterSCF        1     118.412  94.88
   scf:    2   -11493.824446   -11486.379047   -11486.379048  0.167085 -6.363722  9.560264
   scf:    3   -11510.720366   -11501.290389   -11501.290470  0.299286 -6.324474  4.745580
   scf:    4   -11511.638185   -11507.347893   -11507.348280  0.179444 -6.218703  3.096513
   scf:    5   -11512.889355   -11510.604885   -11510.605680  0.066478 -6.110321  2.145661
   scf:    6   -11512.791215   -11511.987524   -11511.988328  0.134445 -6.043786  1.520715
   scf:    7   -11512.082454   -11512.241291   -11512.242341  0.116418 -5.978191  1.212374
   scf:    8   -11512.595650   -11512.556916   -11512.557835  0.097562 -5.965272  0.674538
   scf:    9   -11512.632201   -11512.620934   -11512.621888  0.029511 -5.933666  0.438820
   scf:   10   -11512.651700   -11512.659056   -11512.659885  0.035371 -5.921479  0.505057
   scf:   11   -11512.560486   -11512.647975   -11512.648870  0.058764 -5.906391  0.846930
   scf:   12   -11512.693803   -11512.691577   -11512.692462  0.051383 -5.900006  0.155777
   scf:   13   -11512.702165   -11512.700021   -11512.700887  0.008043 -5.893034  0.250633
   scf:   14   -11512.706941   -11512.704873   -11512.705742  0.009967 -5.888793  0.063527
   scf:   15   -11512.707443   -11512.706420   -11512.707292  0.001962 -5.885686  0.048426
   scf:   16   -11512.707270   -11512.706923   -11512.707794  0.002200 -5.885337  0.030076
   scf:   17   -11512.707894   -11512.707485   -11512.708358  0.001223 -5.883704  0.013473
   scf:   18   -11512.707579   -11512.707534   -11512.708406  0.000313 -5.883560  0.013115
   scf:   19   -11512.707791   -11512.707682   -11512.708554  0.000576 -5.882568  0.007769
   scf:   20   -11512.707736   -11512.707712   -11512.708583  0.000154 -5.882699  0.005110
   scf:   21   -11512.707726   -11512.707719   -11512.708590  0.000066 -5.882704  0.004632
   scf:   22   -11512.707752   -11512.707739   -11512.708610  0.000301 -5.882495  0.002515
   scf:   23   -11512.707742   -11512.707741   -11512.708611  0.000087 -5.882282  0.001877
   scf:   24   -11512.707742   -11512.707741   -11512.708611  0.000017 -5.882240  0.001690
   scf:   25   -11512.707746   -11512.707744   -11512.708615  0.000143 -5.882217  0.000685
   scf:   26   -11512.707745   -11512.707744   -11512.708615  0.000021 -5.882213  0.000576
   scf:   27   -11512.707745   -11512.707745   -11512.708615  0.000045 -5.882184  0.000502
   scf:   28   -11512.707745   -11512.707745   -11512.708616  0.000020 -5.882188  0.000337
   scf:   29   -11512.707745   -11512.707745   -11512.708616  0.000008 -5.882186  0.000296

SCF Convergence by DM+H criterion
max |DM_out - DM_in|         :     0.0000076840
max |H_out - H_in|      (eV) :     0.0002958899
SCF cycle converged after 29 iterations

Using DM_out to compute the final energy and forces
No. of atoms with KB's overlaping orbs in proc 0. Max # of overlaps:     117     434

siesta: E_KS(eV) =           -11512.7077

siesta: E_KS - E_eggbox =    -11512.7077

siesta: Atomic forces (eV/Ang):
----------------------------------------
   Tot   -0.002629   -0.000724    0.000506
----------------------------------------
   Max    6.524957
   Res    1.983596    sqrt( Sum f_i^2 / 3N )
----------------------------------------
   Max    6.524957    constrained

Stress tensor Voigt[x,y,z,yz,xz,xy] (kbar):      394.19      383.27      363.97       19.17      -10.17     -144.33
(Free)E + p*V (eV/cell)   -11619.9098
Target enthalpy (eV/cell)   -11512.7086

siesta: Program's energy decomposition (eV):
siesta: Ebs     =     -3459.083924
siesta: Eions   =     19538.932793
siesta: Ena     =      4856.245836
siesta: Ekin    =      7472.848186
siesta: Enl     =      -676.867988
siesta: Eso     =         0.000000
siesta: Edftu   =         0.000000
siesta: DEna    =       -40.728158
siesta: DUscf   =        11.126223
siesta: DUext   =         0.000000
siesta: Ex      =     -3247.505780
siesta: Ec      =      -348.893271
siesta: Exc     =     -3596.399051
siesta: EbV     =         0.000000
siesta: eta*DQ  =         0.000000
siesta: Emadel  =         0.000000
siesta: Emeta   =         0.000000
siesta: Emolmec =         0.000000
siesta: Ekinion =         0.000000
siesta: Eharris =    -11512.707745
siesta: Etot    =    -11512.707745
siesta: FreeEng =    -11512.708616

siesta: Final energy (eV):
siesta:  Band Struct. =   -3459.083924
siesta:       Kinetic =    7472.848186
siesta:       Hartree =    1508.592180
siesta:         Edftu =       0.000000
siesta:       Eso     =       0.000000
siesta:    Ext. field =       0.000000
siesta:         Exch. =   -3247.505780
siesta:         Corr. =    -348.893271
siesta:     Bulk bias =       0.000000
siesta:   Exch.-corr. =   -3596.399051
siesta:  Ion-electron =   -9869.409895
siesta:       Ion-ion =   -7028.339165
siesta:       Ekinion =       0.000000
siesta: D3 dispersion =       0.000000
siesta:         Total =  -11512.707745
siesta:         Fermi =      -5.882186

siesta: Atomic forces (eV/Ang):
siesta:      1   -1.869719   -2.653467   -2.209195
siesta:      2   -0.769602    1.288783    0.410155
siesta:      3    2.247201    0.498779   -2.599507
siesta:      4    1.229723    0.009104    1.011626
siesta:      5    0.289362    2.273383   -1.335746
siesta:      6   -0.318211    0.206572   -1.766652
siesta:      7   -2.452857    1.163366    0.951090
siesta:      8    1.426906   -0.592785    1.875068
siesta:      9    2.571677   -0.484685    3.306482
siesta:     10    2.626201    1.638768   -0.451994
siesta:     11   -1.784000   -4.305382   -1.957165
siesta:     12   -0.493416    2.623169    1.605692
siesta:     13   -1.052117    0.721384    1.183196
siesta:     14   -1.385214   -0.547331   -0.624821
siesta:     15   -2.270939   -2.704579   -0.716888
siesta:     16   -1.656742    0.723214   -1.078255
siesta:     17    0.922891    3.298332   -0.034488
siesta:     18    1.434802    0.148097   -0.015011
siesta:     19   -2.396874    2.742722   -0.256294
siesta:     20   -0.061527   -0.852914    1.815025
siesta:     21    0.360402    3.070640   -2.508783
siesta:     22   -1.049225   -0.393989   -1.297574
siesta:     23    0.201068    0.319211   -3.096679
siesta:     24    0.068321   -0.371498   -1.188409
siesta:     25   -1.401641    0.893651    3.904098
siesta:     26    1.842470   -1.425373   -0.358474
siesta:     27   -0.361978    1.459660   -1.647165
siesta:     28   -1.017879   -1.826686    2.127843
siesta:     29    1.730742   -3.433196   -0.241994
siesta:     30    2.013485    1.943282   -1.202679
siesta:     31    1.295186    0.874334   -0.563882
siesta:     32    1.375616   -2.517854    0.995828
siesta:     33   -1.946621    2.892063   -5.103550
siesta:     34    4.557858   -0.791874   -0.413259
siesta:     35    2.866775   -0.178860   -0.692466
siesta:     36   -1.416704   -0.513876    0.504242
siesta:     37   -1.592811   -0.269193   -1.187140
siesta:     38   -3.467295   -4.565664    1.430360
siesta:     39   -0.256904    1.199986    2.259852
siesta:     40    0.336414    0.907919   -1.705752
siesta:     41    4.994857    2.727818   -1.167185
siesta:     42   -1.504385   -0.133111    1.583445
siesta:     43    1.106782   -2.463216    0.699046
siesta:     44    0.411344    3.710433    3.025506
siesta:     45    2.362147   -0.392837   -0.005698
siesta:     46   -0.813759    3.531826   -0.555849
siesta:     47    1.710607   -3.074499    1.996777
siesta:     48    0.668139    2.858520   -2.294291
siesta:     49   -2.614991   -2.206692   -0.253385
siesta:     50    2.382454   -0.289451    2.080102
siesta:     51   -3.119146    1.996522   -1.519803
siesta:     52   -0.901283    0.921096    3.505814
siesta:     53   -6.075502   -1.020348    0.499297
siesta:     54   -0.154504    2.919109    0.862536
siesta:     55    1.657997   -2.271341    0.722084
siesta:     56   -0.713557    3.493181    2.553612
siesta:     57    0.706294    0.678417    3.395075
siesta:     58    0.900078   -2.421191    2.843489
siesta:     59   -2.540758   -2.297117   -1.478731
siesta:     60   -1.577943   -0.818468    0.972869
siesta:     61    2.008273   -0.380496   -2.543941
siesta:     62    0.448917    0.288624   -3.053164
siesta:     63    0.653581   -1.299759    0.131588
siesta:     64   -0.373093   -6.524957   -1.125425
siesta: ----------------------------------------
siesta:    Tot   -0.002629   -0.000724    0.000506

siesta: Stress tensor (static) (eV/Ang**3):
siesta:     0.246032   -0.090082   -0.006345
siesta:    -0.090082    0.239217    0.011963
siesta:    -0.006345    0.011963    0.227171

siesta: Cell volume =        451.424184 Ang**3

siesta: Pressure (static):
siesta:                Solid            Molecule  Units
siesta:          -0.00258641         -0.00391220  Ry/Bohr**3
siesta:          -0.23747325         -0.35920149  eV/Ang**3
siesta:        -380.47409384       -575.50423903  kBar
(Free)E+ p_basis*V_orbitals  =      -11476.036504
(Free)Eharris+ p_basis*V_orbitals  =      -11476.036504

cite: Please see "aiida.bib" for an exhaustive BiBTeX file.
cite: Please clearly indicate Siesta version in published work: NO_VERSION_LABEL_AVAILABLE
cite: This calculation has made use of the following articles
cite: which are encouraged to be cited in a published work.
        Primary SIESTA paper
          DOI: www.doi.org/10.1088/0953-8984/14/11/302


             Section          Calls    Walltime       %
 global_section                   1    3461.798  100.00
  siesta                          1    3461.798  100.00
   Setup                          1       0.153    0.00
    bands                         1       0.000    0.00
    KSV_init                      1       0.000    0.00
   IterGeom                       1    3461.375   99.99
    geom_init                     1       6.237    0.18
     state_init                   1       0.432    0.01
      hsparse                     1       0.034    0.00
      overlap                     1       0.170    0.00
     Setup_H0                     1       3.568    0.10
      naefs                       1       0.003    0.00
      MolMec                      1       0.000    0.00
      kinefsm                     1       0.165    0.00
      nlefsm                      1       0.482    0.01
      DHSCF_Init                  1       2.917    0.08
       DHSCF1                     1       0.082    0.00
        INITMESH                  1       0.000    0.00
       DHSCF2                     1       2.835    0.08
        REMESH                    1       0.954    0.03
         INITMESH                 2       0.559    0.02
          SPLOAD                  2       0.559    0.02
        REORD                     2       0.000    0.00
        PHION                     1       1.497    0.04
        COMM_BSC                  1       0.003    0.00
        POISON                    1       0.010    0.00
         fft                      2       0.008    0.00
     setup_H                      1       2.237    0.06
      DHSCF                       1       2.236    0.06
       DHSCF3                     1       2.236    0.06
        rhoofd                    1       1.202    0.03
        COMM_BSC                  2       0.200    0.01
        POISON                    1       0.009    0.00
         fft                      2       0.008    0.00
        XC                        1       0.067    0.00
         COMM_BSC                 2       0.001    0.00
         GXC-CellXC               1       0.066    0.00
          gridxc@cellXC           1       0.066    0.00
        vmat                      1       0.756    0.02
    IterSCF                      29    3445.109   99.52
     compute_dm                  29    3382.690   97.71
      diagon                     29    3382.667   97.71
       c-eigval                8584    1559.284   45.04
        c-buildHS              8584      10.013    0.29
        cdiag                  8584    1549.258   44.75
         cdiag1                8584      87.728    2.53
         cdiag2                8584     305.215    8.82
         cdiag3                8584    1139.285   32.91
       c-eigvec                8584    1624.885   46.94
        cdiag                  8584    1615.315   46.66
         cdiag1                8584      88.896    2.57
         cdiag2                8584     307.185    8.87
         cdiag3                8584    1145.414   33.09
         cdiag4                8584      60.180    1.74
       c-buildD                8584     197.362    5.70
     setup_H                     29      61.560    1.78
      DHSCF                      29      61.532    1.78
       DHSCF3                    29      61.532    1.78
        rhoofd                   29      33.830    0.98
        COMM_BSC                 58       3.802    0.11
        POISON                   29       0.421    0.01
         fft                     58       0.398    0.01
        XC                       29       2.159    0.06
         COMM_BSC                58       0.039    0.00
         GXC-CellXC              29       2.118    0.06
          gridxc@cellXC          29       2.118    0.06
        vmat                     29      21.242    0.61
     MIXER                       28       0.155    0.00
    PostSCF                       1      10.014    0.29
     naefs                        1       0.002    0.00
     kinefsm                      1       0.021    0.00
     nlefsm                       1       0.154    0.00
     DHSCF                        1       8.449    0.24
      DHSCF3                      1       2.244    0.06
       rhoofd                     1       1.214    0.04
       COMM_BSC                   2       0.088    0.00
       POISON                     1       0.009    0.00
        fft                       2       0.008    0.00
       XC                         1       0.078    0.00
        COMM_BSC                  2       0.001    0.00
        GXC-CellXC                1       0.077    0.00
         gridxc@cellXC            1       0.077    0.00
       vmat                       1       0.852    0.02
      DHSCF4                      1       6.205    0.18
       REORD                     10       0.001    0.00
       COMM_BSC                   2       0.017    0.00
       dfscf                      1       5.965    0.17
     overfsm                      1       0.021    0.00
     MolMec                       1       0.000    0.00
     writeHSX                     1       0.037    0.00
    state_analysis                1       0.001    0.00
    siesta_move                   1       0.000    0.00
   Analysis                       1       0.261    0.01
    optical                       1       0.000    0.00

>> End of run:  14-APR-2024  15:44:40
Job completed
