<preamble>

<basis_specs>
===============================================================================
B                    Z=   5    Mass=  10.810        Charge= 0.17977+309
Lmxo=2 Lmxkb= 1    BasisType=split      Semic=F
L=0  Nsemic=0  Cnfigmx=2
          i=1  nzeta=2  polorb=0  (2s)
            splnorm:   0.15000    
               vcte:    40.000    
               rinn:    5.1434    
               qcoe:    0.0000    
               qyuk:    0.0000    
               qwid:   0.10000E-01
                rcs:    5.7149      3.8237    
            lambdas:    1.0000      1.0000    
L=1  Nsemic=0  Cnfigmx=2
          i=1  nzeta=2  polorb=1  (2p)  (to be polarized perturbatively)
            splnorm:   0.15000    
               vcte:    40.000    
               rinn:    6.3602    
               qcoe:    0.0000    
               qyuk:    0.0000    
               qwid:   0.10000E-01
                rcs:    7.0669      4.7480    
            lambdas:    1.0000      1.0000    
L=2  Nsemic=0  Cnfigmx=3
          i=1  nzeta=0  polorb=0  (3d)  (perturbative polarization orbital) (from 2p)
-------------------------------------------------------------------------------
L=0  Nkbl=1  erefs: 0.17977+309
L=1  Nkbl=1  erefs: 0.17977+309
===============================================================================
</basis_specs>

<pseudopotential_header>
 B  ps nrl pcec
 ONCVPSP-3.2018-03-01Hamann's oncvpsp                        
 2s 2.00  r= 1.21/2p 1.00  r= 1.21/                                     2s:2p:
</pseudopotential_header>
</preamble>
B                             # Symbol
B                             # Label
    5                         # Atomic number
     3.00000000000                             # Valence charge
     10.8100000000        # Mass 
     11.8525697897        # Self energy 
   2   5                      # Lmax for basis, no. of nl orbitals 
   1   4                      # Lmax for projectors, no. of nl KB projectors
# PAOs:__________________________
  0  2  1  0  2.000000   #orbital l, n, z, is_polarized, population
 500    0.1145275969967277E-01     5.714927090136714     # npts, delta, cutoff
     0.000000000000000        0.2878465127377153    
    0.1145275969967277E-01    0.2879650707294206    
    0.2290551939934555E-01    0.2883247420138487    
    0.3435827909901833E-01    0.2889231508539759    
    0.4581103879869110E-01    0.2897587416124001    
    0.5726379849836387E-01    0.2908293583151439    
    0.6871655819803665E-01    0.2921322654655436    
    0.8016931789770942E-01    0.2936641743176079    
    0.9162207759738220E-01    0.2954212739296451    
    0.1030748372970550        0.2973992663673640    
    0.1145275969967277        0.2995934053623939    
    0.1259803566964005        0.3019985376731427    
    0.1374331163960733        0.3046091463510953    
    0.1488858760957461        0.3074193950893992    
    0.1603386357954188        0.3104231728228013    
    0.1717913954950916        0.3136141377588554    
    0.1832441551947644        0.3169857600495388    
    0.1946969148944372        0.3205313623592016    
    0.2061496745941099        0.3242441576480441    
    0.2176024342937827        0.3281172835684362    
    0.2290551939934555        0.3321438329625707    
    0.2405079536931283        0.3363168800518931    
    0.2519607133928010        0.3406295020191261    
    0.2634134730924738        0.3450747957998280    
    0.2748662327921466        0.3496458900195688    
    0.2863189924918194        0.3543359521321562    
    0.2977717521914922        0.3591381909311133    
    0.3092245118911649        0.3640458547180224    
    0.3206772715908377        0.3690522255148794    
    0.3321300312905104        0.3741506098007834    
    0.3435827909901832        0.3793343263340114    
    0.3550355506898560        0.3845966916869611    
    0.3664883103895288        0.3899310041720482    
    0.3779410700892016        0.3953305268703606    
    0.3893938297888743        0.4007884704909322    
    0.4008465894885471        0.4062979767866574    
    0.4122993491882199        0.4118521032332269    
    0.4237521088878927        0.4174438096406166    
    0.4352048685875654        0.4230659473135168    
    0.4466576282872382        0.4287112513090618    
    0.4581103879869109        0.4343723362589196    
    0.4695631476865837        0.4400416961303422    
    0.4810159073862565        0.4457117081992599    
    0.4924686670859293        0.4513746414005844    
    0.5039214267856020        0.4570226691089919    
    0.5153741864852749        0.4626478862904007    
    0.5268269461849476        0.4682423308528080    
    0.5382797058846204        0.4737980089177334    
    0.5497324655842932        0.4793069236328731    
    0.5611852252839660        0.4847611070549568    
    0.5726379849836387        0.4901526545515273    
    0.5840907446833115        0.4954737611031528    
    0.5955435043829843        0.5007167588351401    
    0.6069962640826571        0.5058741550712355    
    0.6184490237823298        0.5109386701819866    
    0.6299017834820025        0.5159032744977881    
    0.6413545431816754        0.5207612235710971    
    0.6528073028813481        0.5255060911036615    
    0.6642600625810209        0.5301317989018646    
    0.6757128222806937        0.5346326432854390    
    0.6871655819803665        0.5390033174502658    
    0.6986183416800392        0.5432389293729688    
    0.7100711013797120        0.5473350149414140    
    0.7215238610793848        0.5512875460988089    
    0.7329766207790576        0.5550929338973102    
    0.7444293804787303        0.5587480264674931    
    0.7558821401784032        0.5622501020199053    
    0.7673348998780759        0.5655968571019091    
    0.7787876595777486        0.5687863904344101    
    0.7902404192774214        0.5718171827466773    
    0.8016931789770942        0.5746880731110322    
    0.8131459386767670        0.5773982323509650    
    0.8245986983764397        0.5799471341544234    
    0.8360514580761126        0.5823345245675218    
    0.8475042177757853        0.5845603905717227    
    0.8589569774754581        0.5866249284589771    
    0.8704097371751308        0.5885285127145553    
    0.8818624968748037        0.5902716660960803    
    0.8933152565744764        0.5918550315606487    
    0.9047680162741492        0.5932793466405282    
    0.9162207759738219        0.5945454208032318    
    0.9276735356734948        0.5956541162552523    
    0.9391262953731675        0.5966063325623802    
    0.9505790550728402        0.5974029953652998    
    0.9620318147725131        0.5980450493693577    
    0.9734845744721858        0.5985334556843428    
    0.9849373341718586        0.5988691934863815    
    0.9963900938715313        0.5990532658716653    
     1.007842853571204        0.5990867096735935    
     1.019295613270877        0.5989706089227564    
     1.030748372970550        0.5987061115454325    
     1.042201132670223        0.5982944488225896    
     1.053653892369895        0.5977369570695137    
     1.065106652069568        0.5970351009473490    
     1.076559411769241        0.5961904977830851    
     1.088012171468913        0.5952049422545279    
     1.099464931168586        0.5940804307918142    
     1.110917690868259        0.5928191850570977    
     1.122370450567932        0.5914236738886270    
     1.133823210267605        0.5898966331341272    
     1.145275969967277        0.5882410828494317    
     1.156728729666950        0.5864603414010325    
     1.168181489366623        0.5845580360899133    
     1.179634249066296        0.5825381103334518    
     1.191087008765969        0.5804048242756608    
     1.202539768465641        0.5781627570440587    
     1.213992528165314        0.5758168089002176    
     1.225445287864987        0.5733720590895175    
     1.236898047564660        0.5708335304342848    
     1.248350807264332        0.5682060522329645    
     1.259803566964005        0.5654942747769358    
     1.271256326663678        0.5627026642043590    
     1.282709086363351        0.5598355290350601    
     1.294161846063024        0.5568970177464402    
     1.305614605762696        0.5538911248766587    
     1.317067365462369        0.5508216965675019    
     1.328520125162042        0.5476924359170132    
     1.339972884861715        0.5445069081378469    
     1.351425644561387        0.5412685454900503    
     1.362878404261060        0.5379806520151932    
     1.374331163960733        0.5346464080813756    
     1.385783923660406        0.5312688747477399    
     1.397236683360078        0.5278509979579541    
     1.408689443059751        0.5243956125712637    
     1.420142202759424        0.5209054462391713    
     1.431594962459097        0.5173831231353310    
     1.443047722158770        0.5138311675457607    
     1.454500481858442        0.5102520073260070    
     1.465953241558115        0.5066479772314877    
     1.477406001257788        0.5030213221268564    
     1.488858760957461        0.4993742000798063    
     1.500311520657133        0.4957086853444402    
     1.511764280356806        0.4920267712390247    
     1.523217040056479        0.4883303729225849    
     1.534669799756152        0.4846213300746439    
     1.546122559455825        0.4809014094820286    
     1.557575319155497        0.4771723075364513    
     1.569028078855170        0.4734356526465684    
     1.580480838554843        0.4696930075677094    
     1.591933598254516        0.4659458716524563    
     1.603386357954188        0.4621956830251864    
     1.614839117653861        0.4584438206832834    
     1.626291877353534        0.4546916065278291    
     1.637744637053207        0.4509403073262779    
     1.649197396752879        0.4471911366095724    
     1.660650156452552        0.4434452565061028    
     1.672102916152225        0.4397037795146189    
     1.683555675851898        0.4359677702183875    
     1.695008435551571        0.4322382469424889    
     1.706461195251243        0.4285161833562730    
     1.717913954950916        0.4248025100228600    
     1.729366714650589        0.4210981158974463    
     1.740819474350262        0.4174038497762045    
     1.752272234049935        0.4137205216973557    
     1.763724993749607        0.4100489042960901    
     1.775177753449280        0.4063897341148057    
     1.786630513148953        0.4027437128701872    
     1.798083272848626        0.3991115086785336    
     1.809536032548298        0.3954937572407458    
     1.820988792247971        0.3918910629882350    
     1.832441551947644        0.3883040001910728    
     1.843894311647317        0.3847331140295854    
     1.855347071346990        0.3811789216306881    
     1.866799831046662        0.3776419130699115    
     1.878252590746335        0.3741225523404756    
     1.889705350446008        0.3706212782902120    
     1.901158110145680        0.3671385055276966    
     1.912610869845353        0.3636746252982179    
     1.924063629545026        0.3602300063309875    
     1.935516389244699        0.3568049956580332    
     1.946969148944372        0.3533999194062072    
     1.958421908644044        0.3500150835626605    
     1.969874668343717        0.3466507747151805    
     1.981327428043390        0.3433072607676318    
     1.992780187743063        0.3399847916318899    
     2.004232947442735        0.3366835998964431    
     2.015685707142408        0.3334039014729883    
     2.027138466842081        0.3301458962211863    
     2.038591226541754        0.3269097685527826    
     2.050043986241427        0.3236956880153242    
     2.061496745941100        0.3205038098564910    
     2.072949505640772        0.3173342755693938    
     2.084402265340445        0.3141872134196260    
     2.095855025040118        0.3110627389545935    
     2.107307784739791        0.3079609554956711    
     2.118760544439463        0.3048819546138519    
     2.130213304139136        0.3018258165892233    
     2.141666063838809        0.2987926108550626    
     2.153118823538481        0.2957823964267460    
     2.164571583238154        0.2927952223162654    
     2.176024342937827        0.2898311279325583    
     2.187477102637500        0.2868901434682993    
     2.198929862337173        0.2839722902734877    
     2.210382622036846        0.2810775812162908    
     2.221835381736518        0.2782060210315635    
     2.233288141436191        0.2753576066574420    
     2.244740901135864        0.2725323275603648    
     2.256193660835537        0.2697301660489860    
     2.267646420535209        0.2669510975771924    
     2.279099180234882        0.2641950910367681    
     2.290551939934555        0.2614621090398736    
     2.302004699634228        0.2587521081917530    
     2.313457459333900        0.2560650393540451    
     2.324910219033573        0.2534008478987751    
     2.336362978733246        0.2507594739537097    
     2.347815738432919        0.2481408526389426    
     2.359268498132591        0.2455449142953104    
     2.370721257832265        0.2429715847047807    
     2.382174017531937        0.2404207853029685    
     2.393626777231610        0.2378924333843615    
     2.405079536931283        0.2353864423000694    
     2.416532296630955        0.2329027216487098    
     2.427985056330628        0.2304411774604588    
     2.439437816030301        0.2280017123744533    
     2.450890575729974        0.2255842258100212    
     2.462343335429646        0.2231886141315868    
     2.473796095129319        0.2208147708077587    
     2.485248854828992        0.2184625865646534    
     2.496701614528665        0.2161319495335825    
     2.508154374228337        0.2138227453935137    
     2.519607133928010        0.2115348575082283    
     2.531059893627683        0.2092681670584991    
     2.542512653327356        0.2070225531694322    
     2.553965413027029        0.2047978930330576    
     2.565418172726702        0.2025940620264516    
     2.576870932426374        0.2004109338254425    
     2.588323692126047        0.1982483805140836    
     2.599776451825720        0.1961062726900253    
     2.611229211525393        0.1939844795659425    
     2.622681971225065        0.1918828690671230    
     2.634134730924738        0.1898013079253538    
     2.645587490624411        0.1877396617692727    
     2.657040250324084        0.1856977952112168    
     2.668493010023756        0.1836755719307608    
     2.679945769723429        0.1816728547550599    
     2.691398529423102        0.1796895057360247    
     2.702851289122775        0.1777253862245377    
     2.714304048822448        0.1757803569417650    
     2.725756808522120        0.1738542780476254    
     2.737209568221793        0.1719470092066017    
     2.748662327921466        0.1700584096509155    
     2.760115087621139        0.1681883382411725    
     2.771567847320811        0.1663366535245957    
     2.783020607020484        0.1645032137908941    
     2.794473366720157        0.1626878771258646    
     2.805926126419830        0.1608905014628093    
     2.817378886119502        0.1591109446318453    
     2.828831645819175        0.1573490644071746    
     2.840284405518848        0.1556047185523787    
     2.851737165218521        0.1538777648638405    
     2.863189924918194        0.1521680612123401    
     2.874642684617867        0.1504754655828368    
     2.886095444317539        0.1487998361126345    
     2.897548204017212        0.1471410311278744    
     2.909000963716885        0.1454989091784150    
     2.920453723416558        0.1438733290712533    
     2.931906483116230        0.1422641499024646    
     2.943359242815903        0.1406712310876549    
     2.954812002515576        0.1390944323911761    
     2.966264762215248        0.1375336139539775    
     2.977717521914921        0.1359886363201510    
     2.989170281614594        0.1344593604623396    
     3.000623041314267        0.1329456478059510    
     3.012075801013939        0.1314473602521858    
     3.023528560713613        0.1299643602000849    
     3.034981320413285        0.1284965105675219    
     3.046434080112958        0.1270436748111393    
     3.057886839812631        0.1256057169453114    
     3.069339599512304        0.1241825015602432    
     3.080792359211976        0.1227738938388594    
     3.092245118911649        0.1213797595730199    
     3.103697878611322        0.1199999651792668    
     3.115150638310995        0.1186343777135288    
     3.126603398010667        0.1172828648866591    
     3.138056157710340        0.1159452950757286    
     3.149508917410013        0.1146215373373239    
     3.160961677109686        0.1133114614185103    
     3.172414436809358        0.1120149377683127    
     3.183867196509031        0.1107318375494732    
     3.195319956208704        0.1094620326423167    
     3.206772715908377        0.1082053956581147    
     3.218225475608050        0.1069617999464737    
     3.229678235307722        0.1057311196104552    
     3.241130995007395        0.1045132295202224    
     3.252583754707068        0.1033080053013747    
     3.264036514406741        0.1021153233488062    
     3.275489274106413        0.1009350608335502    
     3.286942033806086        0.9976709570897778E-01
     3.298394793505759        0.9861130671650969E-01
     3.309847553205432        0.9746757339087257E-01
     3.321300312905104        0.9633577606475252E-01
     3.332753072604777        0.9521579587291440E-01
     3.344205832304450        0.9410751475591166E-01
     3.355658592004123        0.9301081546344837E-01
     3.367111351703796        0.9192558155761366E-01
     3.378564111403469        0.9085169741577336E-01
     3.390016871103141        0.8978904823316836E-01
     3.401469630802814        0.8873752002517117E-01
     3.412922390502487        0.8769699962922818E-01
     3.424375150202160        0.8666737470653406E-01
     3.435827909901832        0.8564853374343480E-01
     3.447280669601505        0.8464036605258130E-01
     3.458733429301178        0.8364276177382945E-01
     3.470186189000851        0.8265561187489581E-01
     3.481638948700523        0.8167880815178481E-01
     3.493091708400196        0.8071224322898939E-01
     3.504544468099869        0.7975581055947671E-01
     3.515997227799542        0.7880940442446228E-01
     3.527449987499215        0.7787291993298592E-01
     3.538902747198887        0.7694625302129257E-01
     3.550355506898560        0.7602930045202456E-01
     3.561808266598233        0.7512195981323280E-01
     3.573261026297906        0.7422412951721422E-01
     3.584713785997578        0.7333570879918011E-01
     3.596166545697251        0.7245659771576070E-01
     3.607619305396924        0.7158669714335263E-01
     3.619072065096597        0.7072590877631506E-01
     3.630524824796269        0.6987413512501789E-01
     3.641977584495942        0.6903127951374906E-01
     3.653430344195615        0.6819724607848385E-01
     3.664883103895288        0.6737193976452276E-01
     3.676335863594961        0.6655526632400095E-01
     3.687788623294634        0.6574713231327438E-01
     3.699241382994306        0.6494744509018630E-01
     3.710694142693979        0.6415611281121951E-01
     3.722146902393652        0.6337304442853632E-01
     3.733599662093325        0.6259814968691259E-01
     3.745052421792997        0.6183133912056589E-01
     3.756505181492670        0.6107252404988603E-01
     3.767957941192343        0.6032161657806773E-01
     3.779410700892015        0.5957852958765085E-01
     3.790863460591688        0.5884317673697048E-01
     3.802316220291361        0.5811547245652095E-01
     3.813768979991034        0.5739533194523600E-01
     3.825221739690706        0.5668267116669002E-01
     3.836674499390380        0.5597740684521989E-01
     3.848127259090052        0.5527945646197481E-01
     3.859580018789725        0.5458873825089331E-01
     3.871032778489398        0.5390517119461195E-01
     3.882485538189071        0.5322867502030858E-01
     3.893938297888743        0.5255917019548184E-01
     3.905391057588416        0.5189657792367003E-01
     3.916843817288089        0.5124082014011268E-01
     3.928296576987762        0.5059181950735527E-01
     3.939749336687434        0.4994949941080232E-01
     3.951202096387107        0.4931378395421872E-01
     3.962654856086780        0.4868459795518263E-01
     3.974107615786453        0.4806186694049319E-01
     3.985560375486125        0.4744551714153390E-01
     3.997013135185798        0.4683547548959428E-01
     4.008465894885471        0.4623166961115165E-01
     4.019918654585144        0.4563402782311648E-01
     4.031371414284816        0.4504247912804216E-01
     4.042824173984489        0.4445695320930197E-01
     4.054276933684162        0.4387738042623208E-01
     4.065729693383835        0.4330369180924915E-01
     4.077182453083508        0.4273581905493877E-01
     4.088635212783180        0.4217369452111808E-01
     4.100087972482854        0.4161725122187352E-01
     4.111540732182526        0.4106642282257972E-01
     4.122993491882199        0.4052114363489591E-01
     4.134446251581871        0.3998134861174555E-01
     4.145899011281545        0.3944697334227675E-01
     4.157351770981217        0.3891795404680928E-01
     4.168804530680890        0.3839422757176865E-01
     4.180257290380562        0.3787573138460720E-01
     4.191710050080236        0.3736240356871537E-01
     4.203162809779908        0.3685418281832138E-01
     4.214615569479581        0.3635100843338827E-01
     4.226068329179253        0.3585282031450214E-01
     4.237521088878927        0.3535955895775682E-01
     4.248973848578600        0.3487116544963186E-01
     4.260426608278272        0.3438758146187419E-01
     4.271879367977945        0.3390874924637592E-01
     4.283332127677618        0.3343461163005454E-01
     4.294784887377291        0.3296511200973310E-01
     4.306237647076963        0.3250019434702272E-01
     4.317690406776636        0.3203980316321388E-01
     4.329143166476308        0.3158388353416997E-01
     4.340595926175982        0.3113238108522852E-01
     4.352048685875654        0.3068524198610536E-01
     4.363501445575327        0.3024241294581554E-01
     4.374954205274999        0.2980384120759888E-01
     4.386406964974673        0.2936947454385829E-01
     4.397859724674346        0.2893926125110808E-01
     4.409312484374018        0.2851315014493300E-01
     4.420765244073691        0.2809109055496734E-01
     4.432218003773364        0.2767303231988346E-01
     4.443670763473037        0.2725892578239808E-01
     4.455123523172709        0.2684872178428831E-01
     4.466576282872382        0.2644237166143302E-01
     4.478029042572055        0.2603982723886827E-01
     4.489481802271728        0.2564104082586065E-01
     4.500934561971400        0.2524596521100139E-01
     4.512387321671073        0.2485455365731252E-01
     4.523840081370746        0.2446675989738634E-01
     4.535292841070419        0.2408253812853703E-01
     4.546745600770091        0.2370184300797764E-01
     4.558198360469764        0.2332462964801549E-01
     4.569651120169437        0.2295085361127077E-01
     4.581103879869110        0.2258047090592485E-01
     4.592556639568783        0.2221343798098562E-01
     4.604009399268455        0.2184971172158172E-01
     4.615462158968128        0.2148924944427431E-01
     4.626914918667801        0.2113200889240095E-01
     4.638367678367474        0.2077794823144502E-01
     4.649820438067146        0.2042702604442814E-01
     4.661273197766819        0.2007920132733233E-01
     4.672725957466492        0.1973443348454011E-01
     4.684178717166165        0.1939268232431349E-01
     4.695631476865837        0.1905390805429534E-01
     4.707084236565510        0.1871807127703753E-01
     4.718536996265183        0.1838513298556064E-01
     4.729989755964856        0.1805505455893146E-01
     4.741442515664529        0.1772779775788375E-01
     4.752895275364201        0.1740332472046026E-01
     4.764348035063874        0.1708159795768330E-01
     4.775800794763547        0.1676258034925828E-01
     4.787253554463220        0.1644623513929599E-01
     4.798706314162892        0.1613252593207998E-01
     4.810159073862565        0.1582141668785390E-01
     4.821611833562238        0.1551287171864097E-01
     4.833064593261911        0.1520685568409495E-01
     4.844517352961583        0.1490333358737162E-01
     4.855970112661256        0.1460227077104548E-01
     4.867422872360929        0.1430363291304790E-01
     4.878875632060602        0.1400738602263597E-01
     4.890328391760275        0.1371349643639556E-01
     4.901781151459947        0.1342193081426336E-01
     4.913233911159621        0.1313265613559512E-01
     4.924686670859293        0.1284563969525541E-01
     4.936139430558966        0.1256084909973834E-01
     4.947592190258638        0.1227825226332289E-01
     4.959044949958312        0.1199781740424648E-01
     4.970497709657984        0.1171951304092491E-01
     4.981950469357657        0.1144330798819402E-01
     4.993403229057329        0.1116917135358251E-01
     5.004855988757003        0.1089707253361739E-01
     5.016308748456675        0.1062698121015152E-01
     5.027761508156348        0.1035886734673118E-01
     5.039214267856020        0.1009270118498986E-01
     5.050667027555694        0.9828453241071367E-02
     5.062119787255367        0.9566094302083866E-02
     5.073572546955039        0.9305595422580521E-02
     5.085025306654712        0.9046927921070293E-02
     5.096478066354384        0.8790063376563736E-02
     5.107930826054058        0.8534973625142899E-02
     5.119383585753730        0.8281630756561131E-02
     5.130836345453403        0.8030007110874069E-02
     5.142289105153075        0.7780075275091558E-02
     5.153741864852749        0.7531808079871108E-02
     5.165194624552421        0.7285178596230901E-02
     5.176647384252094        0.7040160132354230E-02
     5.188100143951766        0.6796726242238634E-02
     5.199552903651440        0.6554851030944037E-02
     5.211005663351112        0.6314511402986727E-02
     5.222458423050785        0.6075694024307480E-02
     5.233911182750458        0.5838407241180087E-02
     5.245363942450131        0.5602694540774414E-02
     5.256816702149804        0.5368645499407462E-02
     5.268269461849476        0.5136401912982401E-02
     5.279722221549149        0.4906158756317783E-02
     5.291174981248822        0.4678160798269393E-02
     5.302627740948495        0.4452696126118994E-02
     5.314080500648167        0.4230087807880349E-02
     5.325533260347840        0.4010684702079160E-02
     5.336986020047513        0.3794852161500437E-02
     5.348438779747186        0.3582963139385586E-02
     5.359891539446858        0.3375390016583247E-02
     5.371344299146531        0.3172497327172278E-02
     5.382797058846204        0.2974635460708485E-02
     5.394249818545877        0.2782135352188863E-02
     5.405702578245550        0.2595304127576958E-02
     5.417155337945222        0.2414421646363176E-02
     5.428608097644895        0.2239737867973363E-02
     5.440060857344568        0.2071470962033834E-02
     5.451513617044241        0.1909806080866404E-02
     5.462966376743913        0.1754894714240277E-02
     5.474419136443586        0.1606854550026929E-02
     5.485871896143259        0.1465769769125394E-02
     5.497324655842932        0.1331691708237990E-02
     5.508777415542604        0.1204639829360714E-02
     5.520230175242277        0.1084602939921735E-02
     5.531682934941950        0.9715406121265435E-03
     5.543135694641623        0.8653847540119657E-03
     5.554588454341296        0.7660412877361487E-03
     5.566041214040968        0.6733918923308791E-03
     5.577493973740641        0.5872957678919135E-03
     5.588946733440314        0.5075913748417041E-03
     5.600399493139987        0.4340980933549508E-03
     5.611852252839659        0.3666177301292428E-03
     5.623305012539332        0.3049357638459091E-03
     5.634757772239005        0.2488221480409504E-03
     5.646210531938678        0.1980313360084684E-03
     5.657663291638350        0.1523008403285425E-03
     5.669116051338023        0.1113467467828309E-03
     5.680568811037696        0.7485197848716459E-04
     5.692021570737369        0.4243392250423893E-04
     5.703474330437042        0.1352400161263991E-04
     5.714927090136714         0.000000000000000    
  0  2  2  0  0.000000   #orbital l, n, z, is_polarized, population
 500    0.7662720992680908E-02     3.823697775347773     # npts, delta, cutoff
     0.000000000000000        0.1934064606704678    
    0.7662720992680908E-02    0.1934971217949263    
    0.1532544198536182E-01    0.1937764015296132    
    0.2298816297804273E-01    0.1942415094415908    
    0.3065088397072363E-01    0.1948919057171227    
    0.3831360496340454E-01    0.1957268389447298    
    0.4597632595608545E-01    0.1967453489005630    
    0.5363904694876636E-01    0.1979462706930170    
    0.6130176794144727E-01    0.1993282398253876    
    0.6896448893412818E-01    0.2008896980863595    
    0.7662720992680909E-01    0.2026289002068649    
    0.8428993091949000E-01    0.2045439212217538    
    0.9195265191217090E-01    0.2066326644703548    
    0.9961537290485181E-01    0.2088928701651971    
    0.1072780938975327        0.2113221244537056    
    0.1149408148902136        0.2139178688939108    
    0.1226035358828945        0.2166774102622267    
    0.1302662568755754        0.2195979306090983    
    0.1379289778682564        0.2226764974770291    
    0.1455916988609373        0.2259100741949483    
    0.1532544198536182        0.2292955301632928    
    0.1609171408462991        0.2328296510453868    