Siesta Version  : NO_VERSION_LABEL_AVAILABLE
Architecture    : ----
Compiler version: GNU-11.4.0
Compiler flags  : -fallow-argument-mismatch;-O3 -march=native
PP flags        : ----
Libraries       : ----
Parallelisations: MPI

Runtime information:
* Directory : /home/ICN2/jgarridoa/aiida_run/e7/84/21c0-07d4-4fd2-b435-f0e947fe4a8b
* Running on 24 nodes in parallel.
>> Start of run:  13-APR-2024  22:30:42

                           *********************** 
                           *  WELCOME TO SIESTA  * 
                           *********************** 

reinit: Reading from standard input
reinit: Dumping input in INPUT_TMP.60958
************************** Dump of input data file ****************************
atomiccoordinatesformat Ang
cdfsave True
dminitspinaf False
dmmixingweight 0.025
dmmixscf1 True
dmnumberpulay 10
dmtolerance 1e-05
electronictemperature 50.000 K
geometrymustconverge T
latticeconstant 1.0 Ang
maxscfiterations 1000
meshcutoff 400 Ry
noncollinearspin False
numberofatoms 32
numberofspecies 2
savehs True
solutionmethod diagon
spinorbit False
spinpolarized False
systemlabel aiida
systemname aiida
usetreetimer T
writedmhsnetcdf True
writeorbmom True
xcauthors PBEsol
xcfunctional GGA
xmlwrite T
#
# -- Basis Set Info follows
#
PAO-BasisSize DZP
PAO-SplitNorm 0.15
PAO-EnergyShift 0.005 Ry
#
# -- Structural Info follows
#
%block chemicalspecieslabel
    1     7      N
    2     6      C
%endblock chemicalspecieslabel
%block lattice-vectors
      5.8994400000       0.0000000000       0.0000000000
      0.0000000000       5.8994400000       0.0000000000
      0.0000000000       0.0000000000       5.8994400000
%endblock lattice-vectors
%block atomiccoordinatesandatomicspecies
      4.0224151752       2.2219650816       1.2779366928    1      N      1
      0.4754358696       2.6413562712       1.6307232048    1      N      2
      5.8819776576       2.1988392768       0.6830961576    1      N      3
      1.9254592272       3.9274931856       0.6018018744    1      N      4
      1.3927397952       2.0292893712       2.2219060872    1      N      5
      2.4442559808       0.5351382024       0.5174988768    1      N      6
      5.7512460672       1.3829467248       4.6709996088    1      N      7
      1.5376890360       3.2130710016       2.6497924704    1      N      8
      5.2835384640       1.2558137928       1.6752639768    1      N      9
      4.2391016064       1.6179214200       0.3667681848    1      N     10
      4.8299895168       0.0182292696       4.4336651376    1      N     11
      4.3104848304       4.8880400064       3.2796166848    1      N     12
      0.9522876048       4.3616329752       0.4934881560    1      N     13
      4.6652771520       3.6885658656       2.9196918504    1      N     14
      2.1239753832       4.3057652784       4.7679864024    1      N     15
      5.8307115240       0.6694094568       0.2569206120    1      N     16
      4.1247704592       4.1977465320       4.6558380480    1      N     17
      4.9465034568       4.8567729744       4.1347405128    1      N     18
      3.2827433880       0.5940736080       1.8357287448    2      C     19
      1.0479765216       3.4717614456       4.4986769664    2      C     20
      2.0136558552       5.4922606512       4.2445290912    2      C     21
      1.7730176976       1.1581780608       5.0450830992    2      C     22
      1.0729311528       5.4519674760       5.1320998392    2      C     23
      0.9573021288       1.7547294336       5.7989135424    2      C     24
      3.8089144416       1.3503228216       4.7791363440    2      C     25
      3.0062956296       4.0763950512       0.0103830144    2      C     26
      4.0040089224       2.4567627936       3.2770799256    2      C     27
      5.8454601240       3.9746887056       2.4197733048    2      C     28
      3.7967615952       5.6655861984       5.5216988568    2      C     29
      4.2646461816       3.6185985072       0.2330868744    2      C     30
      3.6069766104       0.2927892072       2.9656484880    2      C     31
      0.0883736112       3.4705815576       5.4168658080    2      C     32
%endblock atomiccoordinatesandatomicspecies
#
# -- K-points Info follows
#
%block kgrid_monkhorst_pack
     6      0      0       0.0000000000
     0      6      0       0.0000000000
     0      0      6       0.0000000000
%endblock kgrid_monkhorst_pack
#
# -- Max wall-clock time block
#
maxwalltime 7200000
************************** End of input data file *****************************

reinit: -----------------------------------------------------------------------
reinit: System Name: aiida
reinit: -----------------------------------------------------------------------
reinit: System Label: aiida
reinit: -----------------------------------------------------------------------

initatom: Reading input for the pseudopotentials and atomic orbitals ----------
Species number:   1 Atomic number:    7 Label: N
Species number:   2 Atomic number:    6 Label: C


---- Processing specs for species: N
Ground state valence configuration:   2s02  2p03
Reading pseudopotential information in PSML from:
  N.psml
PSML file version: 1.1
Using libxc ids:  116 133
GGA--PBEsol XC_GGA_X_PBE_SOL--XC_GGA_C_PBE_SOL ps
PSML uuid: 56b43770-1d5f-11e8-525f-e1e3c77dc801

---- Processing specs for species: C
Ground state valence configuration:   2s02  2p02
Reading pseudopotential information in PSML from:
  C.psml
PSML file version: 1.1
Using libxc ids:  116 133
GGA--PBEsol XC_GGA_X_PBE_SOL--XC_GGA_C_PBE_SOL ps
PSML uuid: 51a02af0-1d5f-11e8-49c3-12b9ebd99919

---- Pseudopotential check for N 

Pseudized shells:
2s( 2.00) rc: 1.21
2p( 3.00) rc: 1.36
Valence configuration for ps generation: 2s:2p: Total charge:   5.000000

---- Pseudopotential check for C 

Pseudized shells:
2s( 2.00) rc: 1.20
2p( 2.00) rc: 1.26
Valence configuration for ps generation: 2s:2p: Total charge:   4.000000
For N, standard SIESTA heuristics set lmxkb to 3
 (one more than the basis l, including polarization orbitals).
Use PS.lmax or PS.KBprojectors blocks to override.
For C, standard SIESTA heuristics set lmxkb to 3
 (one more than the basis l, including polarization orbitals).
Use PS.lmax or PS.KBprojectors blocks to override.
N pseudopotential only contains V_ls up to l=1 -- lmxkb reset.
C pseudopotential only contains V_ls up to l=1 -- lmxkb reset.

<basis_specs>
===============================================================================
N                    Z=   7    Mass=  14.007        Charge= 0.17977+309
Lmxo=2 Lmxkb= 1    BasisType=split      Semic=F
L=0  Nsemic=0  Cnfigmx=2
          i=1  nzeta=2  polorb=0  (2s)
            splnorm:   0.15000    
               vcte:    40.000    
               rinn:  -0.90000    
               qcoe:    0.0000    
               qyuk:    0.0000    
               qwid:   0.10000E-01
                rcs:    0.0000      0.0000    
            lambdas:    1.0000      1.0000    
L=1  Nsemic=0  Cnfigmx=2
          i=1  nzeta=2  polorb=1  (2p)  (to be polarized perturbatively)
            splnorm:   0.15000    
               vcte:    40.000    
               rinn:  -0.90000    
               qcoe:    0.0000    
               qyuk:    0.0000    
               qwid:   0.10000E-01
                rcs:    0.0000      0.0000    
            lambdas:    1.0000      1.0000    
L=2  Nsemic=0  Cnfigmx=3
          i=1  nzeta=0  polorb=0  (3d)  (perturbative polarization orbital) (from 2p)
-------------------------------------------------------------------------------
L=0  Nkbl=1  erefs: 0.17977+309
L=1  Nkbl=1  erefs: 0.17977+309
===============================================================================
</basis_specs>

Using PAO.SplitTailNorm
atom: Called for N                     (Z =   7)
NOTE: N pseudopotential has channels up to l= 1
NOTE: PAOs with higher l will be generated with V_local
Maximum radius (at nrval) set to   50.00000 8518

read_vps: Pseudopotential generation method:
read_vps: ONCVPSP-3.Hamann's oncvpsp                        
Valence charge in pseudo generation:    5.00000

read_vps: Pseudopotential includes a core correction:
read_vps: Pseudo-core for xc-correction

xc_check: Exchange-correlation functional:
xc_check: GGA PBEsol
Got Vlocal (oncv-fit) from psml data
Choosing vlocal chloc cutoff:  6.038618
qtot up to nchloc:    4.99997633
atom: Maximum radius for chlocal:    6.03862
atom: Maximum radius for r*vlocal+2*Zval:    6.03862
Reading KB projs from N psml data
Using scalar-relativistic projectors in PSML file

PSML: Kleinman-Bylander projectors: 
   l= 0   rc=  1.214864   Ekb= 14.928379
   l= 0   rc=  1.221004   Ekb=  1.251736
   l= 1   rc=  1.375180   Ekb= -8.619428
   l= 1   rc=  1.375180   Ekb= -2.025883

PSML: Total number of  Kleinman-Bylander projectors:   8
atom: -------------------------------------------------------------------------

atom: SANKEY-TYPE ORBITALS:
atom: Selected multiple-zeta basis: split     

SPLIT: Orbitals with angular momentum L= 0

SPLIT: Basis orbitals for state 2s

SPLIT: PAO cut-off radius determined from an
SPLIT: energy shift=  0.005000 Ry
Split based on tail norm

   izeta = 1
                 lambda =    1.000000
                     rc =    4.265195
                 energy =   -1.350827
                kinetic =    1.238925
    potential(screened) =   -2.589752
       potential(ionic) =   -8.091187

   izeta = 2
                 rmatch =    2.696970
              splitnorm =    0.150000
                 energy =   -1.041987
                kinetic =    2.172223
    potential(screened) =   -3.214210
       potential(ionic) =   -9.191634

SPLIT: Orbitals with angular momentum L= 1

SPLIT: Basis orbitals for state 2p

SPLIT: PAO cut-off radius determined from an
SPLIT: energy shift=  0.005000 Ry
Split based on tail norm

   izeta = 1
                 lambda =    1.000000
                     rc =    5.253677
                 energy =   -0.511511
                kinetic =    3.468518
    potential(screened) =   -3.980029
       potential(ionic) =   -9.293867

   izeta = 2
                 rmatch =    3.312873
              splitnorm =    0.150000
                 energy =   -0.376057
                kinetic =    4.835938
    potential(screened) =   -5.211995
       potential(ionic) =  -11.044105
*Note: V_local used for l= 2

** Using vlocal for PAOs with L= 2

POLgen: Perturbative polarization orbital with L=  2

POLgen: Polarization orbital for state 2p
*Note: V_local used for lpol= 2

** Using vlocal for PAOs with L= 2
Split based on tail norm

   izeta = 1
                     rc =    5.253677
                 energy =    1.558482
                kinetic =    2.921564
    potential(screened) =   -1.363082
       potential(ionic) =   -5.578203
atom: Total number of Sankey-type orbitals: 13

atm_pop: Valence configuration (for local Pseudopot. screening):
 2s( 2.00)                                                            
 2p( 3.00)                                                            
 3d( 0.00)                                                            
Vna: chval, zval:    5.00000   5.00000

Vna:  Cut-off radius for the neutral-atom potential:   5.253677
comcore: Pseudo-core radius Rcore=  1.572221

atom: _________________________________________________________________________

<basis_specs>
===============================================================================
C                    Z=   6    Mass=  12.011        Charge= 0.17977+309
Lmxo=2 Lmxkb= 1    BasisType=split      Semic=F
L=0  Nsemic=0  Cnfigmx=2
          i=1  nzeta=2  polorb=0  (2s)
            splnorm:   0.15000    
               vcte:    40.000    
               rinn:  -0.90000    
               qcoe:    0.0000    
               qyuk:    0.0000    
               qwid:   0.10000E-01
                rcs:    0.0000      0.0000    
            lambdas:    1.0000      1.0000    
L=1  Nsemic=0  Cnfigmx=2
          i=1  nzeta=2  polorb=1  (2p)  (to be polarized perturbatively)
            splnorm:   0.15000    
               vcte:    40.000    
               rinn:  -0.90000    
               qcoe:    0.0000    
               qyuk:    0.0000    
               qwid:   0.10000E-01
                rcs:    0.0000      0.0000    
            lambdas:    1.0000      1.0000    
L=2  Nsemic=0  Cnfigmx=3
          i=1  nzeta=0  polorb=0  (3d)  (perturbative polarization orbital) (from 2p)
-------------------------------------------------------------------------------
L=0  Nkbl=1  erefs: 0.17977+309
L=1  Nkbl=1  erefs: 0.17977+309
===============================================================================
</basis_specs>

Using PAO.SplitTailNorm
atom: Called for C                     (Z =   6)
NOTE: C pseudopotential has channels up to l= 1
NOTE: PAOs with higher l will be generated with V_local
Maximum radius (at nrval) set to   50.00000 8518

read_vps: Pseudopotential generation method:
read_vps: ONCVPSP-3.Hamann's oncvpsp                        
Valence charge in pseudo generation:    4.00000

read_vps: Pseudopotential includes a core correction:
read_vps: Pseudo-core for xc-correction

xc_check: Exchange-correlation functional:
xc_check: GGA PBEsol
Got Vlocal (oncv-fit) from psml data
Choosing vlocal chloc cutoff:  4.114026
qtot up to nchloc:    4.00001066
atom: Maximum radius for chlocal:    4.11403
atom: Maximum radius for r*vlocal+2*Zval:    4.11403
Reading KB projs from C psml data
Using scalar-relativistic projectors in PSML file

PSML: Kleinman-Bylander projectors: 
   l= 0   rc=  1.219773   Ekb= 12.937878
   l= 0   rc=  1.219773   Ekb=  0.780062
   l= 1   rc=  1.278952   Ekb= -8.359390
   l= 1   rc=  1.278952   Ekb= -1.756905

PSML: Total number of  Kleinman-Bylander projectors:   8
atom: -------------------------------------------------------------------------

atom: SANKEY-TYPE ORBITALS:
atom: Selected multiple-zeta basis: split     

SPLIT: Orbitals with angular momentum L= 0

SPLIT: Basis orbitals for state 2s

SPLIT: PAO cut-off radius determined from an
SPLIT: energy shift=  0.005000 Ry
Split based on tail norm

   izeta = 1
                 lambda =    1.000000
                     rc =    4.858714
                 energy =   -0.997375
                kinetic =    0.928233
    potential(screened) =   -1.925608
       potential(ionic) =   -5.470603

   izeta = 2
                 rmatch =    3.157143
              splitnorm =    0.150000
                 energy =   -0.747328
                kinetic =    1.689643
    potential(screened) =   -2.436971
       potential(ionic) =   -6.275825

SPLIT: Orbitals with angular momentum L= 1

SPLIT: Basis orbitals for state 2p

SPLIT: PAO cut-off radius determined from an
SPLIT: energy shift=  0.005000 Ry
Split based on tail norm

   izeta = 1
                 lambda =    1.000000
                     rc =    5.984425
                 energy =   -0.378962
                kinetic =    2.440834
    potential(screened) =   -2.819796
       potential(ionic) =   -6.224005

   izeta = 2
                 rmatch =    3.889428
              splitnorm =    0.150000
                 energy =   -0.273331
                kinetic =    3.469746
    potential(screened) =   -3.743077
       potential(ionic) =   -7.475055
*Note: V_local used for l= 2

** Using vlocal for PAOs with L= 2

POLgen: Perturbative polarization orbital with L=  2

POLgen: Polarization orbital for state 2p
*Note: V_local used for lpol= 2

** Using vlocal for PAOs with L= 2
Split based on tail norm

   izeta = 1
                     rc =    5.984425
                 energy =    1.076317
                kinetic =    2.134413
    potential(screened) =   -1.058097
       potential(ionic) =   -3.835567
atom: Total number of Sankey-type orbitals: 13

atm_pop: Valence configuration (for local Pseudopot. screening):
 2s( 2.00)                                                            
 2p( 2.00)                                                            
 3d( 0.00)                                                            
Vna: chval, zval:    4.00000   4.00000

Vna:  Cut-off radius for the neutral-atom potential:   5.984425
comcore: Pseudo-core radius Rcore=  1.671741

atom: _________________________________________________________________________

prinput: Basis input 

PAO.BasisType split     

%block ChemicalSpeciesLabel
    1    7 N                       # Species index, atomic number, species label
    2    6 C                       # Species index, atomic number, species label
%endblock ChemicalSpeciesLabel

%block PAO.Basis                 # Define Basis set
# WARNING: This information might be incomplete!
N                     2                    # Species label, number of l-shells
 n=2   0   2                         # n, l, Nzeta 
   4.265      2.697   
   1.000      1.000   
 n=2   1   2 P   1                   # n, l, Nzeta, Polarization, NzetaPol
   5.254      3.313   
   1.000      1.000   
C                     2                    # Species label, number of l-shells
 n=2   0   2                         # n, l, Nzeta 
   4.859      3.157   
   1.000      1.000   
 n=2   1   2 P   1                   # n, l, Nzeta, Polarization, NzetaPol
   5.984      3.889   
   1.000      1.000   
%endblock PAO.Basis

prinput: ----------------------------------------------------------------------

coor:   Atomic-coordinates input format  =     Cartesian coordinates
coor:                                          (in Angstroms)

siesta: Atomic coordinates (Bohr) and species
siesta:      7.60126   4.19891   2.41495  1        1
siesta:      0.89844   4.99144   3.08162  1        2
siesta:     11.11533   4.15520   1.29086  1        3
siesta:      3.63859   7.42189   1.13724  1        4
siesta:      2.63190   3.83480   4.19879  1        5
siesta:      4.61897   1.01126   0.97793  1        6
siesta:     10.86828   2.61339   8.82691  1        7
siesta:      2.90581   6.07182   5.00738  1        8
siesta:      9.98444   2.37314   3.16579  1        9
siesta:      8.01074   3.05743   0.69309  1       10
siesta:      9.12736   0.03445   8.37841  1       11
siesta:      8.14564   9.23706   6.19758  1       12
siesta:      1.79956   8.24229   0.93256  1       13
siesta:      8.81610   6.97038   5.51742  1       14
siesta:      4.01373   8.13672   9.01019  1       15
siesta:     11.01845   1.26500   0.48551  1       16
siesta:      7.79469   7.93259   8.79826  1       17
siesta:      9.34754   9.17797   7.81353  1       18
siesta:      6.20349   1.12264   3.46902  2       19
siesta:      1.98039   6.56068   8.50127  2       20
siesta:      3.80526  10.37887   8.02100  2       21
siesta:      3.35052   2.18864   9.53383  2       22
siesta:      2.02755  10.30273   9.69826  2       23
siesta:      1.80904   3.31596  10.95836  2       24
siesta:      7.19781   2.55174   9.03126  2       25
siesta:      5.68108   7.70327   0.01962  2       26
siesta:      7.56648   4.64261   6.19278  2       27
siesta:     11.04632   7.51107   4.57271  2       28
siesta:      7.17484  10.70641  10.43450  2       29
siesta:      8.05901   6.83816   0.44047  2       30
siesta:      6.81620   0.55329   5.60426  2       31
siesta:      0.16700   6.55845  10.23639  2       32

siesta: System type = bulk      

initatomlists: Number of atoms, orbitals, and projectors:     32   416   256

siesta: ******************** Simulation parameters ****************************
siesta:
siesta: The following are some of the parameters of the simulation.
siesta: A complete list of the parameters used, including default values,
siesta: can be found in file out.fdf
siesta:
redata: Spin configuration                          = none
redata: Number of spin components                   = 1
redata: Time-Reversal Symmetry                      = T
redata: Spin spiral                                 = F
redata: Long output                                 =   F
redata: Number of Atomic Species                    =        2
redata: Charge density info will appear in .RHO file
redata: Write Mulliken Pop.                         = NO
redata: Matel table size (NRTAB)                    =     1024
redata: Mesh Cutoff                                 =   400.0000 Ry
redata: Net charge of the system                    =     0.0000 |e|
redata: Min. number of SCF Iter                     =        0
redata: Max. number of SCF Iter                     =     1000
redata: SCF convergence failure will abort job
redata: SCF mix quantity                            = Hamiltonian
redata: Mix DM or H after convergence               =   F
redata: Recompute H after scf cycle                 =   F
redata: Mix DM in first SCF step                    =   T
redata: Write Pulay info on disk                    =   F
redata: New DM Occupancy tolerance                  = 0.000000000001
redata: No kicks to SCF
redata: DM Mixing Weight for Kicks                  =     0.5000
redata: Require Harris convergence for SCF          =   F
redata: Harris energy tolerance for SCF             =     0.000100 eV
redata: Require DM convergence for SCF              =   T
redata: DM tolerance for SCF                        =     0.000010
redata: Require EDM convergence for SCF             =   F
redata: EDM tolerance for SCF                       =     0.001000 eV
redata: Require H convergence for SCF               =   T
redata: Hamiltonian tolerance for SCF               =     0.001000 eV
redata: Require (free) Energy convergence for SCF   =   F
redata: (free) Energy tolerance for SCF             =     0.000100 eV
redata: Using DFT-D3 dispersion                     =   F
redata: Using Saved Data (generic)                  =   F
redata: Use continuation files for DM               =   T
redata: Neglect nonoverlap interactions             =   F
redata: Method of Calculation                       = Diagonalization
redata: Electronic Temperature                      =    50.0000 K
redata: Fix the spin of the system                  =   F
redata: Max. number of TDED Iter                    =        1
redata: Number of TDED substeps                     =        3
redata: Dynamics option                             = Single-point calculation
mix.SCF: Pulay mixing                            = Pulay
mix.SCF:    Variant                              = stable
mix.SCF:    History steps                        = 10
mix.SCF:    Linear mixing weight                 =     0.025000
mix.SCF:    Mixing weight                        =     0.025000
mix.SCF:    SVD condition                        = 0.1000E-07
redata: ***********************************************************************

%block SCF.Mixers
  Pulay
%endblock SCF.Mixers

%block SCF.Mixer.Pulay
  # Mixing method
  method pulay
  variant stable

  # Mixing options
  weight 0.0250
  weight.linear 0.0250
  history 10
%endblock SCF.Mixer.Pulay

DM_history_depth set to one: no extrapolation allowed by default for geometry relaxation
Size of DM history Fstack: 1
Total number of electrons:   146.000000
Total ionic charge:   146.000000

* ProcessorY, Blocksize:    6  17


* Orbital distribution balance (max,min):    25    17

k-point displ. along   1 input, could be:     0.00    0.50
k-point displ. along   2 input, could be:     0.00    0.50
k-point displ. along   3 input, could be:     0.00    0.50
 Kpoints in:          144 . Kpoints trimmed:          132

siesta: k-grid: Number of k-points = 132
siesta: k-points from Monkhorst-Pack grid
siesta: k-cutoff (effective) =    17.698 Ang
siesta: k-point supercell and displacements
siesta: k-grid:     6     0     0      0.000
siesta: k-grid:     0     6     0      0.000
siesta: k-grid:     0     0     6      0.000

diag: Algorithm                                     = D&C
diag: Parallel over k                               =   F
diag: Use parallel 2D distribution                  =   T
diag: Parallel block-size                           = 17
diag: Parallel distribution                         =     4 x     6
diag: Used triangular part                          = Lower
diag: Absolute tolerance                            =  0.100E-15
diag: Orthogonalization factor                      =  0.100E-05
diag: Memory factor                                 =  1.0000

superc: Internal auxiliary supercell:     3 x     5 x     5  =      75
superc: Number of atoms, orbitals, and projectors:   2400  31200  19200


ts: **************************************************************
ts: Save H and S matrices                           =    F
ts: Save DM and EDM matrices                        =    F
ts: Only save the overlap matrix S                  =    F
ts: **************************************************************

************************ Begin: TS CHECKS AND WARNINGS ************************
************************ End: TS CHECKS AND WARNINGS **************************


                     ====================================
                        Single-point calculation
                     ====================================

superc: Internal auxiliary supercell:     3 x     5 x     5  =      75
superc: Number of atoms, orbitals, and projectors:   2400  31200  19200

outcell: Unit cell vectors (Ang):
        5.899440    0.000000    0.000000
        0.000000    5.899440    0.000000
        0.000000    0.000000    5.899440

outcell: Cell vector modules (Ang)   :    5.899440    5.899440    5.899440
outcell: Cell angles (23,13,12) (deg):     90.0000     90.0000     90.0000
outcell: Cell volume (Ang**3)        :    205.3205
<dSpData1D:S at geom step 0
  <sparsity:sparsity for geom step 0
    nrows_g=416 nrows=25 sparsity=.2200 nnzs=38076, refcount: 7>
  <dData1D:(new from dSpData1D) n=38076, refcount: 1>
refcount: 1>
new_DM -- step:     1
Initializing Density Matrix...

Attempting to read DM from file... Failed...
DM filled with atomic data:
<dSpData2D:DM initialized from atoms
  <sparsity:sparsity for geom step 0
    nrows_g=416 nrows=25 sparsity=.2200 nnzs=38076, refcount: 8>
  <dData2D:DM n=38076 m=1, refcount: 1>
refcount: 1>
No. of atoms with KB's overlaping orbs in proc 0. Max # of overlaps:      74     372

InitMesh: MESH = 72 x 72 x 72 = 373248
InitMesh: Mesh cutoff (required, used) =   400.000   411.666 Ry
New grid distribution [1]: sub = 2
New grid distribution [2]: sub = 2
New grid distribution [3]: sub = 2
Setting up quadratic distribution...

stepf: Fermi-Dirac step function

siesta: Program's energy decomposition (eV):
siesta: Ebs     =     -2349.749799
siesta: Eions   =     12040.716475
siesta: Ena     =      2602.044630
siesta: Ekin    =      5217.587720
siesta: Enl     =      -535.745863
siesta: Eso     =         0.000000
siesta: Edftu   =         0.000000
siesta: DEna    =      -144.411660
siesta: DUscf   =        30.052324
siesta: DUext   =         0.000000
siesta: Ex      =     -2116.668685
siesta: Ec      =      -210.138203
siesta: Exc     =     -2326.806888
siesta: EbV     =         0.000000
siesta: eta*DQ  =         0.000000
siesta: Emadel  =         0.000000
siesta: Emeta   =         0.000000
siesta: Emolmec =         0.000000
siesta: Ekinion =         0.000000
siesta: Eharris =     -6890.292594
siesta: Etot    =     -7197.996213
siesta: FreeEng =     -7197.996779

        iscf     Eharris(eV)        E_KS(eV)     FreeEng(eV)     dDmax    Ef(eV) dHmax(eV)
   scf:    1    -6890.292594    -7197.996213    -7197.996779  1.670989 -4.789256 11.899926
             Section          Calls    Walltime % sect.
 IterSCF                          1      10.948  100.00
  compute_dm                      1      10.601   96.83
  setup_H                         1       0.337    3.08
  MIXER                           1       0.000    0.00
timer: Routine,Calls,Time,% = IterSCF        1      10.948  82.01
   scf:    2    -7207.539348    -7203.017122    -7203.017664  0.031724 -4.799573  9.131158
   scf:    3    -7212.976613    -7211.956142    -7211.956692  0.194443 -4.847135  3.197189
   scf:    4    -7212.405299    -7212.401278    -7212.401796  0.062699 -4.808189  2.643505
   scf:    5    -7213.778588    -7213.283698    -7213.284261  0.044885 -4.745434  1.505841
   scf:    6    -7214.079380    -7213.733092    -7213.733647  0.040301 -4.678892  0.872074
   scf:    7    -7214.034817    -7213.924072    -7213.924567  0.041805 -4.610808  0.833071
   scf:    8    -7214.161122    -7214.075876    -7214.076286  0.049510 -4.504764  0.406194
   scf:    9    -7214.087461    -7214.082147    -7214.082563  0.003300 -4.499238  0.337887
   scf:   10    -7214.104925    -7214.096962    -7214.097401  0.012008 -4.476226  0.121012
   scf:   11    -7214.099840    -7214.100167    -7214.100599  0.005446 -4.467946  0.084586
   scf:   12    -7214.101221    -7214.100799    -7214.101234  0.000839 -4.468640  0.074305
   scf:   13    -7214.102633    -7214.102011    -7214.102441  0.003224 -4.466548  0.024368
   scf:   14    -7214.102391    -7214.102218    -7214.102648  0.001238 -4.465938  0.017532
   scf:   15    -7214.102415    -7214.102333    -7214.102763  0.001204 -4.465554  0.009236
   scf:   16    -7214.102350    -7214.102342    -7214.102772  0.000113 -4.465652  0.007830
   scf:   17    -7214.102403    -7214.102375    -7214.102805  0.000504 -4.465861  0.004220
   scf:   18    -7214.102411    -7214.102395    -7214.102825  0.000556 -4.466132  0.003422
   scf:   19    -7214.102397    -7214.102396    -7214.102826  0.000044 -4.466156  0.003125
   scf:   20    -7214.102402    -7214.102400    -7214.102830  0.000240 -4.466183  0.002494
   scf:   21    -7214.102401    -7214.102400    -7214.102831  0.000095 -4.466184  0.002505
   scf:   22    -7214.102401    -7214.102401    -7214.102831  0.000064 -4.466220  0.002433
   scf:   23    -7214.102402    -7214.102402    -7214.102832  0.000173 -4.466496  0.001240
   scf:   24    -7214.102402    -7214.102402    -7214.102832  0.000027 -4.466535  0.000987
   scf:   25    -7214.102403    -7214.102402    -7214.102832  0.000084 -4.466617  0.000356
   scf:   26    -7214.102402    -7214.102402    -7214.102833  0.000004 -4.466623  0.000331

SCF Convergence by DM+H criterion
max |DM_out - DM_in|         :     0.0000038366
max |H_out - H_in|      (eV) :     0.0003312551
SCF cycle converged after 26 iterations

Using DM_out to compute the final energy and forces
No. of atoms with KB's overlaping orbs in proc 0. Max # of overlaps:      74     372

siesta: E_KS(eV) =            -7214.1024

siesta: E_KS - E_eggbox =     -7214.1024

siesta: Atomic forces (eV/Ang):
----------------------------------------
   Tot    0.001581   -0.000576    0.001828
----------------------------------------
   Max   36.629725
   Res    9.141790    sqrt( Sum f_i^2 / 3N )
----------------------------------------
   Max   36.629725    constrained

Stress tensor Voigt[x,y,z,yz,xz,xy] (kbar):    -1326.81    -1247.76    -1517.75     -265.35      -94.08       -9.09
(Free)E + p*V (eV/cell)    -7039.2910
Target enthalpy (eV/cell)    -7214.1028

siesta: Program's energy decomposition (eV):
siesta: Ebs     =     -2302.615439
siesta: Eions   =     12040.716475
siesta: Ena     =      2602.044630
siesta: Ekin    =      5177.396239
siesta: Enl     =      -525.230620
siesta: Eso     =         0.000000
siesta: Edftu   =         0.000000
siesta: DEna    =      -115.205582
siesta: DUscf   =         8.127635
siesta: DUext   =         0.000000
siesta: Ex      =     -2109.704796
siesta: Ec      =      -210.813433
siesta: Exc     =     -2320.518229
siesta: EbV     =         0.000000
siesta: eta*DQ  =         0.000000
siesta: Emadel  =         0.000000
siesta: Emeta   =         0.000000
siesta: Emolmec =         0.000000
siesta: Ekinion =         0.000000
siesta: Eharris =     -7214.102402
siesta: Etot    =     -7214.102402
siesta: FreeEng =     -7214.102833

siesta: Final energy (eV):
siesta:  Band Struct. =   -2302.615439
siesta:       Kinetic =    5177.396239
siesta:       Hartree =    2230.334378
siesta:         Edftu =       0.000000
siesta:       Eso     =       0.000000
siesta:    Ext. field =       0.000000
siesta:         Exch. =   -2109.704796
siesta:         Corr. =    -210.813433
siesta:     Bulk bias =       0.000000
siesta:   Exch.-corr. =   -2320.518229
siesta:  Ion-electron =   -9354.188152
siesta:       Ion-ion =   -2947.126638
siesta:       Ekinion =       0.000000
siesta: D3 dispersion =       0.000000
siesta:         Total =   -7214.102402
siesta:         Fermi =      -4.466623

siesta: Atomic forces (eV/Ang):
siesta:      1   -5.174238    9.401367   12.249952
siesta:      2   -2.982523    9.065437    9.791688
siesta:      3    0.881037    4.606566   -8.763976
siesta:      4   17.447430  -10.604655   13.405589
siesta:      5    3.142427   -4.054452    2.446965
siesta:      6    3.705334   -4.026546    5.542605
siesta:      7   -0.464251   -0.196701   -4.099395
siesta:      8    7.423015    6.296229   10.424532
siesta:      9   -1.414789   -5.672660    9.045802
siesta:     10   -3.509396   -6.771119  -22.159023
siesta:     11    2.391012   25.594041   13.347942
siesta:     12  -21.403567    1.099282  -36.629725
siesta:     13  -22.615205    9.729964   -0.633918
siesta:     14   -1.914170  -10.365946   -7.589451
siesta:     15    3.125240   -6.047110   -5.583708
siesta:     16    1.988695   -8.922669   -1.528355
siesta:     17   -9.136314  -12.972556   11.408041
siesta:     18   30.701269   -4.569655   14.506767
siesta:     19   -6.491333    1.273568  -11.379706
siesta:     20    2.492447   -1.983043   -5.287071
siesta:     21    3.462837    5.265386   -8.052930
siesta:     22   10.712859   -3.105747   -3.120599
siesta:     23   -6.533586    3.076744    3.875756
siesta:     24   -4.828648    0.579190    0.728152
siesta:     25   -2.115029    4.870851    0.242770
siesta:     26   -2.659113    0.143030    1.089948
siesta:     27   -0.226020    1.712118    1.663915
siesta:     28    4.683075   -2.321236   -5.031656
siesta:     29   -1.424879    2.067461    0.822168
siesta:     30    2.074603    2.362226   -1.106457
siesta:     31    0.761498   -6.419765    7.065161
siesta:     32   -2.098135    0.889823    3.310045
siesta: ----------------------------------------
siesta:    Tot    0.001581   -0.000576    0.001828

siesta: Stress tensor (static) (eV/Ang**3):
siesta:    -0.828131   -0.005675   -0.058722
siesta:    -0.005675   -0.778790   -0.165617
siesta:    -0.058722   -0.165617   -0.947307

siesta: Cell volume =        205.320525 Ang**3

siesta: Pressure (static):
siesta:                Solid            Molecule  Units
siesta:           0.00927302          0.00849968  Ry/Bohr**3
siesta:           0.85140926          0.78040467  eV/Ang**3
siesta:        1364.10802173       1250.34612847  kBar
(Free)E+ p_basis*V_orbitals  =       -7201.321387
(Free)Eharris+ p_basis*V_orbitals  =       -7201.321387

cite: Please see "aiida.bib" for an exhaustive BiBTeX file.
cite: Please clearly indicate Siesta version in published work: NO_VERSION_LABEL_AVAILABLE
cite: This calculation has made use of the following articles
cite: which are encouraged to be cited in a published work.
        Primary SIESTA paper
          DOI: www.doi.org/10.1088/0953-8984/14/11/302


             Section          Calls    Walltime       %
 global_section                   1     289.177  100.00
  siesta                          1     289.177  100.00
   Setup                          1       0.157    0.05
    bands                         1       0.000    0.00
    KSV_init                      1       0.000    0.00
   IterGeom                       1     288.957   99.92
    geom_init                     1       2.244    0.78
     state_init                   1       0.427    0.15
      hsparse                     1       0.013    0.00
      overlap                     1       0.322    0.11
     Setup_H0                     1       1.461    0.51
      naefs                       1       0.002    0.00
      MolMec                      1       0.000    0.00
      kinefsm                     1       0.320    0.11
      nlefsm                      1       0.555    0.19
      DHSCF_Init                  1       0.582    0.20
       DHSCF1                     1       0.024    0.01
        INITMESH                  1       0.000    0.00
       DHSCF2                     1       0.558    0.19
        REMESH                    1       0.212    0.07
         INITMESH                 2       0.144    0.05
          SPLOAD                  2       0.144    0.05
        REORD                     2       0.000    0.00
        PHION                     1       0.215    0.07
        COMM_BSC                  1       0.001    0.00
        POISON                    1       0.002    0.00
         fft                      2       0.002    0.00
     setup_H                      1       0.356    0.12
      DHSCF                       1       0.356    0.12
       DHSCF3                     1       0.356    0.12
        rhoofd                    1       0.162    0.06
        COMM_BSC                  2       0.024    0.01
        POISON                    1       0.029    0.01
         fft                      2       0.029    0.01
        XC                        1       0.015    0.01
         COMM_BSC                 2       0.000    0.00
         GXC-CellXC               1       0.015    0.01
          gridxc@cellXC           1       0.015    0.01
        vmat                      1       0.125    0.04
    IterSCF                      26     285.365   98.68
     compute_dm                  26     276.169   95.50
      diagon                     26     276.163   95.50
       c-eigval                3432     127.460   44.08
        c-buildHS              3432       1.740    0.60
        cdiag                  3432     125.717   43.47
         cdiag1                3432       6.677    2.31
         cdiag2                3432      21.494    7.43
         cdiag3                3432      96.061   33.22
       c-eigvec                3432     131.752   45.56
        cdiag                  3432     130.039   44.97
         cdiag1                3432       6.636    2.29
         cdiag2                3432      21.379    7.39
         cdiag3                3432      95.650   33.08
         cdiag4                3432       5.104    1.77
       c-buildD                3432      16.722    5.78
     setup_H                     26       8.888    3.07
      DHSCF                      26       8.880    3.07
       DHSCF3                    26       8.880    3.07
        rhoofd                   26       4.342    1.50
        COMM_BSC                 52       0.622    0.21
        POISON                   26       0.460    0.16
         fft                     52       0.456    0.16
        XC                       26       0.461    0.16
         COMM_BSC                52       0.007    0.00
         GXC-CellXC              26       0.453    0.16
          gridxc@cellXC          26       0.453    0.16
        vmat                     26       2.990    1.03
     MIXER                       25       0.048    0.02
    PostSCF                       1       1.342    0.46
     naefs                        1       0.001    0.00
     kinefsm                      1       0.010    0.00
     nlefsm                       1       0.068    0.02
     DHSCF                        1       0.922    0.32
      DHSCF3                      1       0.361    0.12
       rhoofd                     1       0.167    0.06
       COMM_BSC                   2       0.028    0.01
       POISON                     1       0.023    0.01
        fft                       2       0.023    0.01
       XC                         1       0.020    0.01
        COMM_BSC                  2       0.000    0.00
        GXC-CellXC                1       0.020    0.01
         gridxc@cellXC            1       0.020    0.01
       vmat                       1       0.123    0.04
      DHSCF4                      1       0.561    0.19
       REORD                     10       0.000    0.00
       COMM_BSC                   2       0.002    0.00
       dfscf                      1       0.521    0.18
     overfsm                      1       0.010    0.00
     MolMec                       1       0.000    0.00
     writeHSX                     1       0.015    0.01
    state_analysis                1       0.001    0.00
    siesta_move                   1       0.000    0.00
   Analysis                       1       0.061    0.02
    optical                       1       0.000    0.00

>> End of run:  13-APR-2024  22:35:32
Job completed
