64
Lattice="7.867314144935931 0.0 0.0 0.0 7.867314144935931 0.0 0.0 0.0 7.867314144935931" Properties=species:S:1:pos:R:3:forces:R:3 energy=-17137.0753149 pbc="T T T"
B 7.766367850410844 5.812920042074568 0.28839213461091645 -0.15915803007252335 -0.6032231933183285 0.5598301548168764 
B 3.1525106642858627 3.1986839310024915 0.5197289335799286 0.6219680850360713 -0.8697975827647539 1.0641411727579022 
B 7.054614299912734 5.4445959957511025 6.177330099610928 -1.6180153648742943 1.7899695230556198 -1.7550994376108635 
B 5.102270275750992 6.458543310064591 3.887608896046241 1.3512172893691847 0.9503196787932615 0.7684444011332573 
B 0.8477282745221103 7.864757267838827 4.5989195167579915 -0.7689568221849329 1.1068736946102051 -0.5745224722162495 
B 5.907140569737149 0.45907272825388695 3.5784698673037143 0.5652803813364045 0.21972681544556855 1.701620728966873 
B 3.921318763694462 0.921094125849296 7.552389493371218 0.05942233004468521 -1.363997733742838 0.726808455189332 
B 7.4908025847818305 2.3350943644327757 3.99340696320451 2.5164460487026976 0.5082988004355007 1.0948810365397803 
B 3.522272855635022 7.171834133746621 1.050441424437602 1.8588699713386239 -2.2985778844275067 -0.19691752233049126 
B 5.431794302174463 1.6355178427681973 5.960704391361531 1.629982054793079 -0.2555332970118517 -0.47852952845998264 
B 5.094889161620213 5.230125144846004 2.3596569059246804 -0.5006289397267527 0.6575310830419244 -0.493567402253461 
B 2.956881244026471 5.061057350602746 7.08953652067069 -0.721117316213497 0.49705741898976036 -0.9402553488149425 
B 1.301306470577174 0.5936675253768654 0.033093856950673 -0.3931372470020525 -0.7584116957356489 0.07852383390426135 
B 1.4324239148480908 5.6020563547049225 4.178974875403943 -0.6562388461098012 -1.4931085554841677 0.6414591111702528 
B 4.723376492873806 1.2802684858222009 1.7827074231058038 1.3525743181252028 0.6954183591747959 -0.07507958282134798 
B 5.8536648620311915 3.240283141275255 3.0201021937637615 -0.2541873240035618 -0.7511894642546818 -0.29129581269763477 
B 5.017366221498844 4.203906393929245 6.893376056706516 0.46779619718890914 0.6159589004802448 -1.538183096081936 
B 4.5740045195923935 4.08670622838072 4.302129024297356 -1.385519417913213 -0.4657747951275576 -0.1469923366946336 
B 2.362212209558955 1.8742310354795013 3.0313626804994085 -1.1124123671115578 2.899398123832659 -1.8043695059162295 
B 6.291473813614146 3.0718360781180314 0.18435398562686917 -1.3813133486787117 -0.5073508343454215 1.2851170305863309 
B 0.49175276448053634 2.410260257236323 1.0168267512905342 0.12605403604972354 2.6651165450582877 2.06787373992961 
B 2.7762036542995303 7.35002171854669 4.412911821697857 0.4541186945868084 -1.018363435182546 -0.006602595387370481 
B 6.840385762283299 6.95660487375795 2.3143608447352118 1.069274382139088 2.135810795497798 -1.2154665912307039 
B 6.898174331603512 4.919230918317742 3.6056286224634477 2.5367485152980374 -0.2531876787206141 -0.32176571054661796 
B 3.2207305054308453 1.4602985955950134 5.013872347287077 0.1697520075001407 1.0802447692102846 -1.170541946003295 
B 1.775176830006271 7.64410978859854 2.301796744045749 -1.8351998725632306 -1.2692175798012997 0.2365793745289247 
B 1.3038460395831595 6.1851273946599745 6.341683799218541 -0.5300624255038321 1.978322183332214 0.7146674444110213 
B 7.6401580367035375 1.7803834185073897 6.740448057431593 0.8398143949262182 0.19643724008035077 -0.06057855556871189 
B 7.8375937922906065 3.8479175094536244 6.918819737382652 0.22986005101437873 0.042024182666469255 -1.328561234059827 
B 4.082522390718443 6.6057769473614085 6.951506854192032 0.2541251032837898 2.086862372318195 -2.4579662854294337 
B 1.871573456761342 4.649725058043159 2.1252109444055893 0.4510056017149126 -1.1261693168310531 -0.31148309382827266 
B 1.9201226523497417 2.205656591731803 6.713898232386677 -1.705831169078383 1.2853335175534712 -3.492783244335476 
N 5.331139098272738 5.265115024505607 5.6032112764213995 0.6902126446573469 -4.082499399255046 1.5443133796419468 
N 0.48852873914394157 5.9832182842500945 2.4457402705671547 -0.20082020127850125 0.1991487264882639 1.2827197331022246 
N 7.153579604736126 6.550620781354092 4.662357604365683 0.5997079797616257 -2.9988376326655497 0.5412726965896864 
N 3.849858375853181 0.2091305180635159 3.028803443208061 -0.013758235271556925 1.1152130708325323 -1.5611901071040573 
N 2.5243575540860848 1.528213971682587 1.16758258513004 -0.30847515911499973 0.956716328740395 -1.2466018908266696 
N 6.708653880777662 1.7931213868394553 2.0157419884672927 -1.726238022501109 0.6889515180851097 1.590013984093619 
N 3.9220968410633965 2.844846756945511 6.44292983841255 0.8215443861399581 -1.9336307372487436 2.666247830872323 
N 1.7000833164928575 3.996681339351633 6.244097634564755 0.07140290392573281 -2.1862232053649278 2.746975101009831 
N 3.1873612924851 5.583358895908067 5.121340645238317 -2.812155161627132 1.7171070033193692 -1.3314179878506787 
N 0.1072731885604449 7.630366377518751 6.455947883128176 2.0241922235455787 0.6437327385460517 -0.39710163244900987 
N 6.498667398935178 3.200734153068662 5.511454004817597 1.0463951549918704 -3.5653259187188495 1.291320076393017 
N 0.4602528253756274 4.21471293663873 4.508592522865738 -0.7888450839060882 4.940172169197463 -3.0603153033460075 
N 5.796460047420533 1.2507581904645462 7.703829783541333 -0.7329104566039919 2.4636756792445405 -3.7403664302891935 
N 7.294181096208763 4.220179933238045 1.6543545530254176 -1.760668449140865 0.6145517351938321 -1.4608118881559295 
N 7.422142960776146 0.18150995156347483 0.7729439464545929 1.464455914029185 -0.7901815438291238 0.3304827819645856 
N 3.3972809021573527 3.6256273350198747 2.7124658220229176 -2.7947739835361265 0.02317336145886688 1.779382230498722 
N 4.681954297169304 7.625398168636224 5.44520649932875 -1.6169678970546626 -0.5641524379577287 0.9636372268181691 
N 1.3677962893416855 4.054570610292901 0.5078327678613709 1.113609730301549 -2.5401544569295207 2.750115704695841 
N 1.1714776923631978 1.8500233098555336 4.980363882880966 -0.027008420368447025 -3.248031872462619 1.5894228872557854 
N 3.01302869161605 6.031177431277624 2.865785613542258 -3.5512434672174065 -0.10704792015310356 0.2498830385915692 
N 0.998702032963431 2.9484537771144157 2.763066026408902 0.45543072902067716 -1.8694534072393378 -1.5170676463629644 
N 1.7284261024314038 6.6308028736564495 0.5507308716994631 -0.8256620093926348 3.563143051318586 -0.21394311672131236 
N 4.771922541536547 3.027231553841903 1.3022592023201258 -0.7571338569866135 -3.5267688699619866 0.42960784476325686 
N 4.719877898273553 2.047322960907895 3.9823101166030783 1.4146369149935993 0.30731456271396435 1.1649685635962845 
N 5.796083203072991 5.248158602329026 0.46102067523617307 0.8868188062785662 -0.8224285888477917 1.3642131922683292 
N 2.714006242132496 3.489502345295706 4.599920239117227 2.7559320564424565 0.8294065654370921 -1.038039323703157 
N 6.7410963241171356 0.7694980628591109 5.013341303582294 -2.7025885878753257 2.8198173090235117 -3.6205504070622263 
N 0.34111966074169153 0.5725650286459038 2.9043472538236617 3.3540708913579325 -3.610905681276749 1.0949098329059557 
N 2.5231986987125357 0.016311302416695667 6.474839664584411 1.366605861765014 2.579603678816998 1.6075118903118 
N 6.091733721714025 7.05078999850688 7.0343016815219235 0.32731621012693546 -0.7523428615641734 0.6782330992179485 
N 3.677596452067078 5.182030680015181 0.9734054710618039 -0.5909420573653248 1.0581160473565143 -0.7553114583843672 
N 5.3450131067673325 7.192781644388927 1.2010367650685512 -0.7146723295088545 -0.29866022623659316 1.9981006589073251 