64
Lattice="7.94676587545529 0.0 0.0 0.0 7.94676587545529 0.0 0.0 0.0 7.94676587545529" Properties=species:S:1:pos:R:3:forces:R:3 energy=-17241.5785488 pbc="T T T"
B 6.238689607538105 6.026315468222912 5.8173266511706645 -0.6484090627246146 1.799713236349825 0.7963583643737573 
B 2.5401185486091045 2.529697159840033 6.598914915319318 3.1537517982729666 -0.5704038205219236 1.4969369295230284 
B 5.6707398131554285 3.8629213027056415 0.9223564801898816 3.4859111972360353 2.935916544130548 -1.610321335786792 
B 6.397763198773443 3.3269930014181113 3.3203598359418693 0.9460264491289969 -2.8607534004252084 2.17881713993918 
B 0.27658559694204626 2.9881055546890836 6.365604226628651 -1.2889945127139373 -0.7650831967135107 0.7639290280727823 
B 1.8069197312292729 2.512296126602548 4.413916672093034 -0.5804231561780934 -0.2998961559884269 0.3144696883773262 
B 7.827439623099216 2.4673635229895488 1.5674248693343265 -1.2188000277259243 -0.6942395079344885 -0.5336881965378156 
B 2.797724884610801 6.160115959944541 3.9036603979661626 -2.05274999125843 -2.8444569711636154 -3.0390517580295624 
B 1.8829814061296057 0.8602676037283619 0.03465107792333525 -5.541796907082641 0.22942656285927335 0.1704796299668953 
B 4.66593484233111 6.099073672548818 1.4699625539313927 1.6255695258975158 3.515127424714737 0.1354303385647791 
B 3.7097505691625905 0.16011143885867318 6.184061949557051 2.0217003094297534 0.40573899963917043 -4.6278426678919615 
B 0.5181529753773112 4.158664962820235 7.7422908214202995 -5.329243729250119 1.021442075259196 -0.1445215056326153 
B 3.067434145040816 4.38377856251037 0.5777084228777358 -5.282848926685288 0.4703523889078047 -1.865726077592503 
B 0.7890741176033329 4.194318922597053 3.814121802817646 -2.4024834011217147 -0.5621603464833772 -6.043822984789728 
B 2.481472211124832 2.332266913753634 2.1705049316226286 0.6267503387044938 1.667528402519266 -0.4643879415637151 
B 1.8286048659502152 4.967830093909894 5.799907340371665 -0.9504400064662089 4.5400952550575395 6.173317672376593 
B 3.844237661455858 0.5367356927004759 1.3317730634167506 3.170160584784726 -2.5106505228994767 1.661350296422571 
B 6.282657473773824 3.5525913538266494 5.806073236014432 -1.5873518628848637 -5.538725980318359 1.5011419703158806 
B 4.0754011340069765 5.623144248297564 6.8320460071012 0.13919829165675396 3.141199925055831 1.5394843318784892 
B 0.0880811582869589 6.914552509126527 7.3420901025791965 0.8872898325538645 -1.0596918770733832 2.137824227136369 
B 4.876357255947291 4.8022377706269195 4.41287564576335 -4.555260912725922 -1.6025301189634473 -3.448938977060471 
B 0.23323678376802523 1.011162383524682 3.342385092242281 -4.114537413508529 -2.4936760934806994 1.3462460595477357 
B 4.364305012732567 2.090230676131717 4.287672760042376 -0.24676891727802436 -1.4966456234259145 1.0732408244693437 
B 6.67492493624146 5.392275600760424 3.069836452364966 0.18641430487840904 -2.66693174456899 -0.7275131948293937 
B 1.9437169483625354 7.867697939024272 5.519755234904715 -0.4194180449037449 -2.144456904441976 3.109510295410988 
B 7.045349123347233 0.6316280240192875 5.610559749857193 -1.119107522247349 -0.4764667316222539 -1.933427620023042 
B 1.8482564232836287 0.2485621217588407 2.942132719422987 -1.7778897045554318 -1.9526540795429865 -2.6886830283375316 
B 0.13326567437821013 6.409868507231524 4.648250904228459 2.2785579821752635 1.4884605134509556 -4.159636122485052 
B 5.497395419760947 7.445747716658635 3.534493389221887 -2.68458623102825 3.1507706030425706 2.187664566336174 
B 5.749405643233147 0.012122791343007044 7.609558375032333 -2.510035000572476 -0.751522165128173 2.6719803646245355 
B 4.493261155976517 2.561721036964942 0.46873601178079255 2.740646842432364 -0.4869432095914589 -2.8682687377761757 
B 0.846873329845282 5.983736696662223 1.617506977234621 1.0655437100568939 1.3933692559105575 3.7079057265179203 
N 0.3688300658711562 5.451304177683307 6.7701748720246675 0.020389884135515134 -1.3435584844081647 1.146581055351612 
N 1.3878001468684729 7.804889085574436 6.952172498780932 1.7206584694442035 2.432979010011926 0.45447273562451906 
N 1.7280878137447564 0.9323423861889787 4.401808184928603 0.5240889792953126 2.302922279063815 -1.9877190546802517 
N 6.986472329652572 2.048657170454273 6.025206894383286 5.157617643954864 0.7392181463484763 -0.7859286804995874 
N 6.889258748021541 1.816599686742165 2.803042860334656 2.69430911837906 4.8174225161663715 -0.26933215572854896 
N 5.2814349050061615 3.295150310555162 4.608180926654652 4.40260417653833 4.101158930315911 -0.4578545088772481 
N 4.349700446406655 6.661956609009305 5.6363573359186825 -2.738896948966381 0.0938830957130907 3.4742784937428035 
N 0.23095526728518198 5.6736443560829075 3.1516587378484164 -1.144392531522278 -3.3307584331660216 2.8747083251621603 
N 7.633676014787753 6.894080050878179 1.0000432687117449 3.75634764218533 -0.8286432046230305 -2.4949364487216994 
N 3.446675268885406 4.676774230985232 3.6193489552399987 2.665839282427209 4.118389698815733 4.06228306464782 
N 4.818271960133826 0.6170830584374417 4.444778732046952 2.327389163006867 -0.07343201929945274 -2.327279633971235 
N 5.482541324986546 3.1387174296202374 7.178486060118261 -0.8062931107042867 3.628646042613711 -0.5431061509396607 
N 6.755948571754428 7.387929432178585 6.597833360483668 -1.1357317672846 1.4968752230240812 -0.6335581082008643 
N 5.813970731941459 5.108018990718801 1.8494039362760444 -2.818318869540739 1.2383375908447285 0.5001964800132964 
N 3.674768111102249 1.774352295318482 5.777200251559139 -3.442749043884811 0.38700233545462076 3.2626876801834475 
N 7.368798388010014 7.867680456139346 4.2113941384336435 1.7644436013243838 0.38515242603826055 1.873741751805769 
N 3.80953890293727 2.7733680472025304 2.9347382537758757 -3.731028951446392 -2.866950532692412 -0.07008032796496046 
N 5.450677177855733 4.931263845410574 7.352443943838327 -1.9737474177665018 -0.3415935513208873 -3.401442970599842 
N 2.918638106112203 2.779365471408737 0.17960088216822725 3.230168355238175 1.4306847184865166 0.004430783734834715 
N 2.6220973853803016 5.297928417580669 7.172190632191724 4.708391503403346 -2.1432109473840635 0.08331894309329792 
N 4.621315341293604 6.814835696244725 0.02488768136875088 -0.1582691993772687 -0.16199164392626983 1.59923422058842 
N 4.490749183283286 7.456794515902105 2.3668941513793427 1.5170763881169822 -2.5479497875194617 -1.6222209198879711 
N 1.7230447961201925 6.335358041030081 5.145556334008101 0.6075650168505141 0.8259021505177051 -5.386844174913382 
N 5.422906409827367 1.2458057448526627 0.49026459521398846 -4.3374567689433885 -1.6621517095776501 -0.05820954022995676 
N 0.02403578806690207 1.2657815302337947 0.4448210145551974 1.8421742496067588 1.9274731999850312 1.7176893584031852 
N 5.8719066285564665 6.056140475230083 4.234376980022048 -0.3323661157345423 -3.706236308610981 -1.2470245803444593 
N 2.221949115193976 0.856936319473371 1.5303238034915885 4.9636810597443555 2.0914337954485474 1.44305147220681 
N 1.1584874760897474 3.218065092210071 2.41802761640496 1.8142906253949085 0.17719046883783598 -0.15079628524432775 
N 1.667512796182511 3.5146145543844356 5.6333876295110255 0.4430102392242171 -6.330357369762335 -0.15289122088359158 
N 7.3141460950547454 3.778405858266999 0.8165262203200933 1.1870029259287476 -2.8009502898599354 -0.5296147962760512 
N 2.0930517780175038 6.692221866845976 2.504524189576353 0.2714252915949268 3.9333702179239465 4.875716645721969 
N 1.8763220163259742 4.749847921916393 1.559541677585875 -1.0155982126984662 -1.9715100429588346 -4.063809014944707 