64
Lattice="7.708094235902314 0.0 0.0 0.0 7.708094235902314 0.0 0.0 0.0 7.708094235902314" Properties=species:S:1:pos:R:3:forces:R:3 energy=-17228.8175644 pbc="T T T"
B 2.0339687416421817 2.8431567664329704 7.217091716313031 0.8046877132900055 -3.87797552248764 -2.4853251472898195 
B 0.9530133551384903 2.466903104114718 4.335983377100171 2.5351546878523084 0.45035948324885106 1.6697994587909422 
B 0.41108268612317705 6.692478822617519 6.567079691540743 3.0980475419002738 -0.027547066682175263 0.18859511539537463 
B 3.138566394786232 5.827801769041317 5.921622379652449 -4.163967404490334 1.9410020927688336 2.742314203456005 
B 2.312561620800975 0.07879599332651141 0.4040976111266024 -2.8172282071718437 -0.3181551090269589 -2.4168504738495526 
B 5.1558116551742 2.862208092146427 2.8613116407867913 -0.1541628889827323 -2.868473140553939 -4.274569104761983 
B 7.424026297407758 1.8676049437487017 2.394248920275374 -2.321493621253268 2.264545464705961 -1.709273106167586 
B 4.267463044199541 6.486237970004023 4.082472636585004 -0.5334411134316138 2.5227491104597606 -5.35215483808846 
B 6.122039767070722 3.9448631134291343 1.726909099660777 1.7647055968344982 0.7260016427155949 -2.0196377697024372 
B 0.8562205033899942 4.674269279640639 1.4402304296485215 2.0611603299545465 0.4641015205644343 -3.6194198925794274 
B 6.475158355349336 5.489360162997284 4.733763434191029 -1.1553382359938955 0.9860220306425708 0.36903186029866775 
B 4.823534982900042 4.338784498545499 6.533150973142572 0.5881315834486835 1.7932299401937526 -2.8179648285030283 
B 1.2612415442060576 5.510273764278133 4.032399314809735 2.6695560705471397 -2.854167260104224 1.6631516119710101 
B 2.8049816589202408 0.8003884644110829 5.256279726254375 2.4211413895201064 -0.8748143211291766 -1.4828102550306732 
B 6.679671053235144 5.5134803314802685 7.278667827116537 -0.2016545245663524 -0.2294805560458523 5.549690968070898 
B 6.363837287585011 2.9514655109699044 5.073897737729266 -0.2904365496997924 0.8869923558068558 -1.1625892638410382 
B 2.4348829098493563 2.4609940790734752 2.093082116337316 1.5681007207653401 -1.5161564470618416 4.782982062220536 
B 4.813840512779547 2.1283597512267702 5.408634062874102 0.3534990489615489 -5.447103142239629 0.5267382449834539 
B 4.984702754469099 6.551235703838845 1.5707700887712217 -0.5069052620009389 -2.88563628901533 0.9792785387492705 
B 6.593730427361375 2.355172736546467 7.345193305228915 -0.3850097297594447 -0.09119732034640565 -0.3533568669035576 
B 7.4191015960004405 4.263862593381952 2.910878540770761 2.6420228878272276 -2.3723369481713807 1.4166873705315386 
B 0.3507868897722548 4.3143112993465085 6.070884999674155 4.215555066052 -2.0406899702599874 1.6054557783447905 
B 0.10678100025937834 1.09440369851707 6.486535502441528 4.74781450002877 2.8801534094734427 1.7772273881333966 
B 3.8806816667738935 4.434815790583487 0.4537076764382933 -4.415122625401868 1.656490652520052 -0.07982866924658631 
B 7.078705988067606 6.885419358626966 3.000447366601369 -3.5663988404692972 2.3343308870280355 -0.26638747017669717 
B 1.4582141843103054 0.3298262691165656 3.6164982989796957 2.817348277734379 -2.005423163449082 -3.3934404090176025 
B 4.1203178376644365 1.7212760243931795 0.3513125817991434 5.022303776406847 -0.4206107801063154 0.18757952926686555 
B 6.925171542220362 0.43468409986408635 4.893464355426994 -2.5333166055149134 -2.207561055590522 1.0585518495053303 
B 3.403557570856353 3.6856645701772943 5.031477782720825 -5.1150005646776755 -1.3505032937542811 -2.022664473475807 
B 3.2918518691896566 4.765761274983106 2.4611366788168394 -0.8833434448357668 2.007739214042907 1.2109512181702287 
B 7.270965128546599 0.26109781767156626 0.6266033133872766 -0.7479529583848913 -1.9086205790045427 0.9849467948984126 
B 4.724720298033468 7.062480449701031 7.23622937268193 0.13349789670607673 0.8344798680922165 3.8815059055586674 
N 1.7733503674320883 5.152215058403728 5.712699881054282 -0.43123509656258197 3.1244031589319397 -0.5208897544353029 
N 1.749432921827507 3.1637672380810913 5.6210113293088 3.8170557814018315 1.3486631545335874 0.6483530126547373 
N 6.826844779718921 6.716216669626403 5.634362519334807 4.957050953542871 -0.0940705292036434 -0.9386980310477577 
N 6.521148699607847 2.6839984950312124 3.5627089049732987 -0.07645898018323438 0.23867919526602185 -1.699045768187881 
N 1.1198712418724912 3.1407269736005556 2.7909375112224266 -0.3039258474801036 -6.012204831839498 1.9221319882803103 
N 2.77624434198995 0.8401213777688885 2.655669707095424 -4.2388112170636205 3.986752767273744 0.040476377984538944 
N 6.587106861984464 0.48074304616129704 2.135834290207325 4.028198451512581 -0.45191345858067605 -1.6151699239415829 
N 4.028256984967362 5.717303154931963 7.157088056733649 2.3657544073961683 -3.0698548709728612 -3.8065595059308808 
N 1.3670829277780796 6.579730986610128 2.909606705221837 -4.991213471133031 2.2388817317937426 5.431482913362335 
N 3.2880987981061955 7.050655462333733 5.020158446335402 2.3927522862377115 0.708239941214414 -0.0066303633118968055 
N 3.779854398502326 0.2622709896142706 0.28804377350143356 -1.0455016963091948 -0.5555888614558927 -1.500164436528389 
N 4.937084460707965 1.6017257952226054 1.7262793483617038 -0.5374168117367115 3.627475676017009 2.3108358804434053 
N 6.186635909195854 7.285427825761422 7.4229517890712735 -1.9029173558393304 -2.8850580476981107 3.0657758142820266 
N 0.7420374202358788 0.9042766169037271 4.869003489178782 0.40271409563868704 2.0024622799412564 -4.252415443198222 
N 6.007481299727318 5.336621963284608 1.0681969489244256 -2.848854073434442 -0.22436431595187703 0.21004892241690767 
N 5.723267678251704 6.49484251559956 3.819389984647693 3.162978719638487 -2.4195141377207814 -1.5766900083084043 
N 5.487974247653668 0.8943624660975095 4.477123207416084 4.5098770683021785 2.263949482770294 2.4220186502468084 
N 5.5121946213617194 4.365462212695956 5.114234194865743 -0.5031486217671044 -1.9510286275165474 2.363170961973571 
N 3.759265307988808 3.316258007968794 2.7957481328350533 -0.7208540351513214 0.6584777635799423 -3.8823685109918693 
N 1.9404726417983806 6.797160908816461 6.810405727142013 -5.074845317598075 1.1715174229074885 0.006808283717195106 
N 5.200072303086174 1.8938910867119758 6.890378746458346 1.812207259724197 1.6480036949210755 -0.3795085953782851 
N 1.0252728845529566 7.416636547463799 1.2044220983555274 -1.0210394403535643 1.1688786987462507 -2.018520624961077 
N 3.5221096018233777 3.041450573889252 7.631679272885273 -3.670049817855347 1.798791495521798 1.575713760072974 
N 7.181193579837586 2.7368205232110037 0.9741574284369938 -2.6603923983430406 0.3161069674827302 2.1959916012587115 
N 7.542252275988605 2.8367127996517563 6.160480033025166 -8.036190338613602 -1.9589525133126287 -0.39585516117027264 
N 3.7486242838961448 6.290293589670844 2.586979796121604 4.590119428202126 -1.5671332142839276 -0.11731639579877345 
N 3.474835859874589 2.0496570258405136 4.556491912144323 0.4554327859039754 -0.5253161672931289 5.578090098659373 
N 2.5555970612495513 4.541883531948441 3.8777286958721198 1.6332069906943167 1.1944665840868465 -0.19458090290368352 
N 0.43675063992873175 4.7092617150433655 7.5949224547119485 -3.3934406661280145 2.611492054810534 0.1907497006502876 
N 2.458982266477905 5.083623811036128 1.086074331885754 -0.8930750739405945 -3.531161601355804 2.937736371628671 
N 1.5001701120457454 1.3563039287985936 7.354663469807145 1.5702717610866392 2.1909021006476133 -0.824089007890301 
N 0.03342923389168475 4.625605768301118 4.49924235463543 -1.0002047552048032 4.4962715566155165 -4.309096976247994 