Siesta Version  : NO_VERSION_LABEL_AVAILABLE
Architecture    : ----
Compiler version: GNU-11.4.0
Compiler flags  : -fallow-argument-mismatch;-O3 -march=native
PP flags        : ----
Libraries       : ----
Parallelisations: MPI

Runtime information:
* Directory : /home/ICN2/jgarridoa/aiida_run/7e/24/a71e-8d93-4112-9e24-86f821aef5bf
* Running on 24 nodes in parallel.
>> Start of run:  14-APR-2024  21:24:46

                           *********************** 
                           *  WELCOME TO SIESTA  * 
                           *********************** 

reinit: Reading from standard input
reinit: Dumping input in INPUT_TMP.21448
************************** Dump of input data file ****************************
atomiccoordinatesformat Ang
cdfsave True
dminitspinaf False
dmmixingweight 0.025
dmmixscf1 True
dmnumberpulay 10
dmtolerance 1e-05
electronictemperature 50.000 K
geometrymustconverge T
latticeconstant 1.0 Ang
maxscfiterations 1000
meshcutoff 400 Ry
noncollinearspin False
numberofatoms 64
numberofspecies 3
savehs True
solutionmethod diagon
spinorbit False
spinpolarized False
systemlabel aiida
systemname aiida
usetreetimer T
writedmhsnetcdf True
writeorbmom True
xcauthors PBEsol
xcfunctional GGA
xmlwrite T
#
# -- Basis Set Info follows
#
PAO-BasisSize DZP
PAO-SplitNorm 0.15
PAO-EnergyShift 0.005 Ry
#
# -- Structural Info follows
#
%block chemicalspecieslabel
    1     5      B
    2     7      N
    3     6      C
%endblock chemicalspecieslabel
%block lattice-vectors
      8.9937700000       0.0000000000       0.0000000000
      0.0000000000       8.9937700000       0.0000000000
      0.0000000000       0.0000000000       8.9937700000
%endblock lattice-vectors
%block atomiccoordinatesandatomicspecies
      1.3167778657       6.5977397343       6.5310059609    1      B      1
      3.3069192913       2.1103881305       8.0103911882    1      B      2
      0.2064070215       8.5773584490       0.2315895775    1      B      3
      5.6813645090       7.9665915283       0.5143537063    1      B      4
      0.0525236168       5.7499869741       3.6133370352    1      B      5
      5.4578693245       4.0014182107       8.8683968462    1      B      6
      4.2533337084       6.1865445699       8.3457688715    1      B      7
      6.4854974847       5.6747091192       0.2887899547    1      B      8
      3.0330589948       2.9630874642       2.6314871643    1      B      9
      6.2255775317       2.4645627931       7.0867310092    1      B     10
      4.0851502094       3.9658928192       4.5599313277    1      B     11
      1.0260092816       4.3053176990       1.9803382163    1      B     12
      2.5903856354       7.3128343870       0.1261825931    1      B     13
      4.4981441278       8.9667886900       2.3210222239    1      B     14
      3.2007028676       7.9386209036       6.8656641426    1      B     15
      3.0464597121       4.2595394097       0.5613011857    1      B     16
      1.7943470527       7.7994872817       7.2110249106    2      N     17
      0.2181888602       4.3848226258       3.1919789107    2      N     18
      0.9695284060       5.3557000973       1.0260992193    2      N     19
      1.9668475613       5.3109111227       6.8086436408    2      N     20
      6.1643299580       2.8172085148       8.5093655478    2      N     21
      4.2671841142       4.7949385378       8.9748830830    2      N     22
      8.3854313972       6.5850585186       4.5605608916    2      N     23
      3.8433976718       3.3339905390       7.6607134106    2      N     24
      4.6237870947       6.5752553093       4.9855165241    2      N     25
      2.3114888277       3.6891545163       1.6636675746    2      N     26
      8.0393511276       1.2926745621       5.2652227711    2      N     27
      3.8978099803       0.1249234653       3.5349113608    2      N     28
      5.2764649836       1.4878393711       6.7175367507    2      N     29
      5.4647045897       6.6133888941       0.1168290723    2      N     30
      4.4025403527       7.5524284198       7.6409271166    2      N     31
      5.6246138203       0.0097132716       1.4667040116    2      N     32
      7.0597496992       3.1086066628       6.1534474963    2      N     33
      0.1438103823       6.7258110191       5.6836129515    3      C     34
      1.5498064464       6.4071617480       0.4626395288    3      C     35
      7.5099778254       3.3220288249       4.8873045557    3      C     36
      7.2247853787       1.3245125079       2.7660339635    3      C     37
      1.4309088070       4.0793042589       6.4971893857    3      C     38
      0.0822030578       2.1057113701       5.6525844450    3      C     39
      8.0116503160       5.3915852396       1.7786978929    3      C     40
      5.5902576189       8.1711997958       7.3874826780    3      C     41
      6.6322758111       1.9953578122       0.4969957302    3      C     42
      5.5724499543       2.9555326974       2.8297997928    3      C     43
      6.6541306722       3.3500893873       2.3140070833    3      C     44
      8.3663646048       3.6048828914       3.9439480204    3      C     45
      1.0841989735       8.4681740812       8.1382825976    3      C     46
      0.7101480792       3.2123947686       5.8731116854    3      C     47
      3.9064439995       0.5238871025       4.7844158269    3      C     48
      7.1192884566       6.9769170775       4.4050586083    3      C     49
      4.3754691050       1.0073022400       5.8721223707    3      C     50
      3.4056708859       0.7386583301       8.3581802741    3      C     51
      4.3514557391       3.1207482523       3.3446031876    3      C     52
      3.8333246494       7.4538567006       5.6302798954    3      C     53
      3.1095959775       8.6207084204       8.9550967890    3      C     54
      8.0367429343       6.6561093016       1.5981029913    3      C     55
      7.6895834123       1.0522710900       3.9522222888    3      C     56
      4.2348964799       5.2745762919       5.0102493916    3      C     57
      5.8388454217       6.9748485104       4.5440123548    3      C     58
      6.5411689210       1.1338445839       1.5766978187    3      C     59
      7.2965556633       0.6129254255       6.1833068127    3      C     60
      8.4641268847       7.7680090867       1.1465257996    3      C     61
      6.5334342788       8.6816861810       6.6756257825    3      C     62
      3.2084375098       5.5369245628       7.3930588154    3      C     63
      7.5117765794       4.2231146412       1.9406756906    3      C     64
%endblock atomiccoordinatesandatomicspecies
#
# -- K-points Info follows
#
%block kgrid_monkhorst_pack
     8      0      0       0.0000000000
     0      8      0       0.0000000000
     0      0      8       0.0000000000
%endblock kgrid_monkhorst_pack
#
# -- Max wall-clock time block
#
maxwalltime 7200000
************************** End of input data file *****************************

reinit: -----------------------------------------------------------------------
reinit: System Name: aiida
reinit: -----------------------------------------------------------------------
reinit: System Label: aiida
reinit: -----------------------------------------------------------------------

initatom: Reading input for the pseudopotentials and atomic orbitals ----------
Species number:   1 Atomic number:    5 Label: B
Species number:   2 Atomic number:    7 Label: N
Species number:   3 Atomic number:    6 Label: C


---- Processing specs for species: B
Ground state valence configuration:   2s02  2p01
Reading pseudopotential information in PSML from:
  B.psml
PSML file version: 1.1
Using libxc ids:  116 133
GGA--PBEsol XC_GGA_X_PBE_SOL--XC_GGA_C_PBE_SOL ps
PSML uuid: 4c4355a0-1d5f-11e8-6182-f22cff9f01b0

---- Processing specs for species: N
Ground state valence configuration:   2s02  2p03
Reading pseudopotential information in PSML from:
  N.psml
PSML file version: 1.1
Using libxc ids:  116 133
GGA--PBEsol XC_GGA_X_PBE_SOL--XC_GGA_C_PBE_SOL ps
PSML uuid: 56b43770-1d5f-11e8-525f-e1e3c77dc801

---- Processing specs for species: C
Ground state valence configuration:   2s02  2p02
Reading pseudopotential information in PSML from:
  C.psml
PSML file version: 1.1
Using libxc ids:  116 133
GGA--PBEsol XC_GGA_X_PBE_SOL--XC_GGA_C_PBE_SOL ps
PSML uuid: 51a02af0-1d5f-11e8-49c3-12b9ebd99919

---- Pseudopotential check for B 

Pseudized shells:
2s( 2.00) rc: 1.21
2p( 1.00) rc: 1.21
Valence configuration for ps generation: 2s:2p: Total charge:   3.000000

---- Pseudopotential check for N 

Pseudized shells:
2s( 2.00) rc: 1.21
2p( 3.00) rc: 1.36
Valence configuration for ps generation: 2s:2p: Total charge:   5.000000

---- Pseudopotential check for C 

Pseudized shells:
2s( 2.00) rc: 1.20
2p( 2.00) rc: 1.26
Valence configuration for ps generation: 2s:2p: Total charge:   4.000000
For B, standard SIESTA heuristics set lmxkb to 3
 (one more than the basis l, including polarization orbitals).
Use PS.lmax or PS.KBprojectors blocks to override.
For N, standard SIESTA heuristics set lmxkb to 3
 (one more than the basis l, including polarization orbitals).
Use PS.lmax or PS.KBprojectors blocks to override.
For C, standard SIESTA heuristics set lmxkb to 3
 (one more than the basis l, including polarization orbitals).
Use PS.lmax or PS.KBprojectors blocks to override.
B pseudopotential only contains V_ls up to l=1 -- lmxkb reset.
N pseudopotential only contains V_ls up to l=1 -- lmxkb reset.
C pseudopotential only contains V_ls up to l=1 -- lmxkb reset.

<basis_specs>
===============================================================================
B                    Z=   5    Mass=  10.810        Charge= 0.17977+309
Lmxo=2 Lmxkb= 1    BasisType=split      Semic=F
L=0  Nsemic=0  Cnfigmx=2
          i=1  nzeta=2  polorb=0  (2s)
            splnorm:   0.15000    
               vcte:    40.000    
               rinn:  -0.90000    
               qcoe:    0.0000    
               qyuk:    0.0000    
               qwid:   0.10000E-01
                rcs:    0.0000      0.0000    
            lambdas:    1.0000      1.0000    
L=1  Nsemic=0  Cnfigmx=2
          i=1  nzeta=2  polorb=1  (2p)  (to be polarized perturbatively)
            splnorm:   0.15000    
               vcte:    40.000    
               rinn:  -0.90000    
               qcoe:    0.0000    
               qyuk:    0.0000    
               qwid:   0.10000E-01
                rcs:    0.0000      0.0000    
            lambdas:    1.0000      1.0000    
L=2  Nsemic=0  Cnfigmx=3
          i=1  nzeta=0  polorb=0  (3d)  (perturbative polarization orbital) (from 2p)
-------------------------------------------------------------------------------
L=0  Nkbl=1  erefs: 0.17977+309
L=1  Nkbl=1  erefs: 0.17977+309
===============================================================================
</basis_specs>

Using PAO.SplitTailNorm
atom: Called for B                     (Z =   5)
NOTE: B pseudopotential has channels up to l= 1
NOTE: PAOs with higher l will be generated with V_local
Maximum radius (at nrval) set to   50.00000 8518

read_vps: Pseudopotential generation method:
read_vps: ONCVPSP-3.Hamann's oncvpsp                        
Valence charge in pseudo generation:    3.00000

read_vps: Pseudopotential includes a core correction:
read_vps: Pseudo-core for xc-correction

xc_check: Exchange-correlation functional:
xc_check: GGA PBEsol
Got Vlocal (oncv-fit) from psml data
Choosing vlocal chloc cutoff:  3.201794
qtot up to nchloc:    3.00023194
atom: Maximum radius for chlocal:    3.20179
atom: Maximum radius for r*vlocal+2*Zval:    3.20179
Reading KB projs from B psml data
Using scalar-relativistic projectors in PSML file

PSML: Kleinman-Bylander projectors: 
   l= 0   rc=  1.223468   Ekb= 16.933205
   l= 0   rc=  1.223468   Ekb=  2.495260
   l= 1   rc=  1.223468   Ekb= -7.218359
   l= 1   rc=  1.223468   Ekb= -1.645242

PSML: Total number of  Kleinman-Bylander projectors:   8
atom: -------------------------------------------------------------------------

atom: SANKEY-TYPE ORBITALS:
atom: Selected multiple-zeta basis: split     

SPLIT: Orbitals with angular momentum L= 0

SPLIT: Basis orbitals for state 2s

SPLIT: PAO cut-off radius determined from an
SPLIT: energy shift=  0.005000 Ry
Split based on tail norm

   izeta = 1
                 lambda =    1.000000
                     rc =    5.714927
                 energy =   -0.682223
                kinetic =    0.604116
    potential(screened) =   -1.286339
       potential(ionic) =   -3.302390

   izeta = 2
                 rmatch =    3.823698
              splitnorm =    0.150000
                 energy =   -0.502064
                kinetic =    1.116406
    potential(screened) =   -1.618470
       potential(ionic) =   -3.792969

SPLIT: Orbitals with angular momentum L= 1

SPLIT: Basis orbitals for state 2p

SPLIT: PAO cut-off radius determined from an
SPLIT: energy shift=  0.005000 Ry
Split based on tail norm

   izeta = 1
                 lambda =    1.000000
                     rc =    7.066857
                 energy =   -0.255540
                kinetic =    1.512761
    potential(screened) =   -1.768301
       potential(ionic) =   -3.690166

   izeta = 2
                 rmatch =    4.748011
              splitnorm =    0.150000
                 energy =   -0.176810
                kinetic =    2.206388
    potential(screened) =   -2.383198
       potential(ionic) =   -4.488680
*Note: V_local used for l= 2

** Using vlocal for PAOs with L= 2

POLgen: Perturbative polarization orbital with L=  2

POLgen: Polarization orbital for state 2p
*Note: V_local used for lpol= 2

** Using vlocal for PAOs with L= 2
Split based on tail norm

   izeta = 1
                     rc =    7.066857
                 energy =    0.676401
                kinetic =    1.417761
    potential(screened) =   -0.741360
       potential(ionic) =   -2.355753
atom: Total number of Sankey-type orbitals: 13

atm_pop: Valence configuration (for local Pseudopot. screening):
 2s( 2.00)                                                            
 2p( 1.00)                                                            
 3d( 0.00)                                                            
Vna: chval, zval:    3.00000   3.00000

Vna:  Cut-off radius for the neutral-atom potential:   7.066857
comcore: Pseudo-core radius Rcore=  1.975419

atom: _________________________________________________________________________

<basis_specs>
===============================================================================
N                    Z=   7    Mass=  14.007        Charge= 0.17977+309
Lmxo=2 Lmxkb= 1    BasisType=split      Semic=F
L=0  Nsemic=0  Cnfigmx=2
          i=1  nzeta=2  polorb=0  (2s)
            splnorm:   0.15000    
               vcte:    40.000    
               rinn:  -0.90000    
               qcoe:    0.0000    
               qyuk:    0.0000    
               qwid:   0.10000E-01
                rcs:    0.0000      0.0000    
            lambdas:    1.0000      1.0000    
L=1  Nsemic=0  Cnfigmx=2
          i=1  nzeta=2  polorb=1  (2p)  (to be polarized perturbatively)
            splnorm:   0.15000    
               vcte:    40.000    
               rinn:  -0.90000    
               qcoe:    0.0000    
               qyuk:    0.0000    
               qwid:   0.10000E-01
                rcs:    0.0000      0.0000    
            lambdas:    1.0000      1.0000    
L=2  Nsemic=0  Cnfigmx=3
          i=1  nzeta=0  polorb=0  (3d)  (perturbative polarization orbital) (from 2p)
-------------------------------------------------------------------------------
L=0  Nkbl=1  erefs: 0.17977+309
L=1  Nkbl=1  erefs: 0.17977+309
===============================================================================
</basis_specs>

Using PAO.SplitTailNorm
atom: Called for N                     (Z =   7)
NOTE: N pseudopotential has channels up to l= 1
NOTE: PAOs with higher l will be generated with V_local
Maximum radius (at nrval) set to   50.00000 8518

read_vps: Pseudopotential generation method:
read_vps: ONCVPSP-3.Hamann's oncvpsp                        
Valence charge in pseudo generation:    5.00000

read_vps: Pseudopotential includes a core correction:
read_vps: Pseudo-core for xc-correction

xc_check: Exchange-correlation functional:
xc_check: GGA PBEsol
Got Vlocal (oncv-fit) from psml data
Choosing vlocal chloc cutoff:  6.038618
qtot up to nchloc:    4.99997633
atom: Maximum radius for chlocal:    6.03862
atom: Maximum radius for r*vlocal+2*Zval:    6.03862
Reading KB projs from N psml data
Using scalar-relativistic projectors in PSML file

PSML: Kleinman-Bylander projectors: 
   l= 0   rc=  1.214864   Ekb= 14.928379
   l= 0   rc=  1.221004   Ekb=  1.251736
   l= 1   rc=  1.375180   Ekb= -8.619428
   l= 1   rc=  1.375180   Ekb= -2.025883

PSML: Total number of  Kleinman-Bylander projectors:   8
atom: -------------------------------------------------------------------------

atom: SANKEY-TYPE ORBITALS:
atom: Selected multiple-zeta basis: split     

SPLIT: Orbitals with angular momentum L= 0

SPLIT: Basis orbitals for state 2s

SPLIT: PAO cut-off radius determined from an
SPLIT: energy shift=  0.005000 Ry
Split based on tail norm

   izeta = 1
                 lambda =    1.000000
                     rc =    4.265195
                 energy =   -1.350827
                kinetic =    1.238925
    potential(screened) =   -2.589752
       potential(ionic) =   -8.091187

   izeta = 2
                 rmatch =    2.696970
              splitnorm =    0.150000
                 energy =   -1.041987
                kinetic =    2.172223
    potential(screened) =   -3.214210
       potential(ionic) =   -9.191634

SPLIT: Orbitals with angular momentum L= 1

SPLIT: Basis orbitals for state 2p

SPLIT: PAO cut-off radius determined from an
SPLIT: energy shift=  0.005000 Ry
Split based on tail norm

   izeta = 1
                 lambda =    1.000000
                     rc =    5.253677
                 energy =   -0.511511
                kinetic =    3.468518
    potential(screened) =   -3.980029
       potential(ionic) =   -9.293867

   izeta = 2
                 rmatch =    3.312873
              splitnorm =    0.150000
                 energy =   -0.376057
                kinetic =    4.835938
    potential(screened) =   -5.211995
       potential(ionic) =  -11.044105
*Note: V_local used for l= 2

** Using vlocal for PAOs with L= 2

POLgen: Perturbative polarization orbital with L=  2

POLgen: Polarization orbital for state 2p
*Note: V_local used for lpol= 2

** Using vlocal for PAOs with L= 2
Split based on tail norm

   izeta = 1
                     rc =    5.253677
                 energy =    1.558482
                kinetic =    2.921564
    potential(screened) =   -1.363082
       potential(ionic) =   -5.578203
atom: Total number of Sankey-type orbitals: 13

atm_pop: Valence configuration (for local Pseudopot. screening):
 2s( 2.00)                                                            
 2p( 3.00)                                                            
 3d( 0.00)                                                            
Vna: chval, zval:    5.00000   5.00000

Vna:  Cut-off radius for the neutral-atom potential:   5.253677
comcore: Pseudo-core radius Rcore=  1.572221

atom: _________________________________________________________________________

<basis_specs>
===============================================================================
C                    Z=   6    Mass=  12.011        Charge= 0.17977+309
Lmxo=2 Lmxkb= 1    BasisType=split      Semic=F
L=0  Nsemic=0  Cnfigmx=2
          i=1  nzeta=2  polorb=0  (2s)
            splnorm:   0.15000    
               vcte:    40.000    
               rinn:  -0.90000    
               qcoe:    0.0000    
               qyuk:    0.0000    
               qwid:   0.10000E-01
                rcs:    0.0000      0.0000    
            lambdas:    1.0000      1.0000    
L=1  Nsemic=0  Cnfigmx=2
          i=1  nzeta=2  polorb=1  (2p)  (to be polarized perturbatively)
            splnorm:   0.15000    
               vcte:    40.000    
               rinn:  -0.90000    
               qcoe:    0.0000    
               qyuk:    0.0000    
               qwid:   0.10000E-01
                rcs:    0.0000      0.0000    
            lambdas:    1.0000      1.0000    
L=2  Nsemic=0  Cnfigmx=3
          i=1  nzeta=0  polorb=0  (3d)  (perturbative polarization orbital) (from 2p)
-------------------------------------------------------------------------------
L=0  Nkbl=1  erefs: 0.17977+309
L=1  Nkbl=1  erefs: 0.17977+309
===============================================================================
</basis_specs>

Using PAO.SplitTailNorm
atom: Called for C                     (Z =   6)
NOTE: C pseudopotential has channels up to l= 1
NOTE: PAOs with higher l will be generated with V_local
Maximum radius (at nrval) set to   50.00000 8518

read_vps: Pseudopotential generation method:
read_vps: ONCVPSP-3.Hamann's oncvpsp                        
Valence charge in pseudo generation:    4.00000

read_vps: Pseudopotential includes a core correction:
read_vps: Pseudo-core for xc-correction

xc_check: Exchange-correlation functional:
xc_check: GGA PBEsol
Got Vlocal (oncv-fit) from psml data
Choosing vlocal chloc cutoff:  4.114026
qtot up to nchloc:    4.00001066
atom: Maximum radius for chlocal:    4.11403
atom: Maximum radius for r*vlocal+2*Zval:    4.11403
Reading KB projs from C psml data
Using scalar-relativistic projectors in PSML file

PSML: Kleinman-Bylander projectors: 
   l= 0   rc=  1.219773   Ekb= 12.937878
   l= 0   rc=  1.219773   Ekb=  0.780062
   l= 1   rc=  1.278952   Ekb= -8.359390
   l= 1   rc=  1.278952   Ekb= -1.756905

PSML: Total number of  Kleinman-Bylander projectors:   8
atom: -------------------------------------------------------------------------

atom: SANKEY-TYPE ORBITALS:
atom: Selected multiple-zeta basis: split     

SPLIT: Orbitals with angular momentum L= 0

SPLIT: Basis orbitals for state 2s

SPLIT: PAO cut-off radius determined from an
SPLIT: energy shift=  0.005000 Ry
Split based on tail norm

   izeta = 1
                 lambda =    1.000000
                     rc =    4.858714
                 energy =   -0.997375
                kinetic =    0.928233
    potential(screened) =   -1.925608
       potential(ionic) =   -5.470603

   izeta = 2
                 rmatch =    3.157143
              splitnorm =    0.150000
                 energy =   -0.747328
                kinetic =    1.689643
    potential(screened) =   -2.436971
       potential(ionic) =   -6.275825

SPLIT: Orbitals with angular momentum L= 1

SPLIT: Basis orbitals for state 2p

SPLIT: PAO cut-off radius determined from an
SPLIT: energy shift=  0.005000 Ry
Split based on tail norm

   izeta = 1
                 lambda =    1.000000
                     rc =    5.984425
                 energy =   -0.378962
                kinetic =    2.440834
    potential(screened) =   -2.819796
       potential(ionic) =   -6.224005

   izeta = 2
                 rmatch =    3.889428
              splitnorm =    0.150000
                 energy =   -0.273331
                kinetic =    3.469746
    potential(screened) =   -3.743077
       potential(ionic) =   -7.475055
*Note: V_local used for l= 2

** Using vlocal for PAOs with L= 2

POLgen: Perturbative polarization orbital with L=  2

POLgen: Polarization orbital for state 2p
*Note: V_local used for lpol= 2

** Using vlocal for PAOs with L= 2
Split based on tail norm

   izeta = 1
                     rc =    5.984425
                 energy =    1.076317
                kinetic =    2.134413
    potential(screened) =   -1.058097
       potential(ionic) =   -3.835567
atom: Total number of Sankey-type orbitals: 13

atm_pop: Valence configuration (for local Pseudopot. screening):
 2s( 2.00)                                                            
 2p( 2.00)                                                            
 3d( 0.00)                                                            
Vna: chval, zval:    4.00000   4.00000

Vna:  Cut-off radius for the neutral-atom potential:   5.984425
comcore: Pseudo-core radius Rcore=  1.671741

atom: _________________________________________________________________________

prinput: Basis input 

PAO.BasisType split     

%block ChemicalSpeciesLabel
    1    5 B                       # Species index, atomic number, species label
    2    7 N                       # Species index, atomic number, species label
    3    6 C                       # Species index, atomic number, species label
%endblock ChemicalSpeciesLabel

%block PAO.Basis                 # Define Basis set
# WARNING: This information might be incomplete!
B                     2                    # Species label, number of l-shells
 n=2   0   2                         # n, l, Nzeta 
   5.715      3.824   
   1.000      1.000   
 n=2   1   2 P   1                   # n, l, Nzeta, Polarization, NzetaPol
   7.067      4.748   
   1.000      1.000   
N                     2                    # Species label, number of l-shells
 n=2   0   2                         # n, l, Nzeta 
   4.265      2.697   
   1.000      1.000   
 n=2   1   2 P   1                   # n, l, Nzeta, Polarization, NzetaPol
   5.254      3.313   
   1.000      1.000   
C                     2                    # Species label, number of l-shells
 n=2   0   2                         # n, l, Nzeta 
   4.859      3.157   
   1.000      1.000   
 n=2   1   2 P   1                   # n, l, Nzeta, Polarization, NzetaPol
   5.984      3.889   
   1.000      1.000   
%endblock PAO.Basis

prinput: ----------------------------------------------------------------------

coor:   Atomic-coordinates input format  =     Cartesian coordinates
coor:                                          (in Angstroms)

siesta: Atomic coordinates (Bohr) and species
siesta:      2.48835  12.46792  12.34181  1        1
siesta:      6.24917   3.98806  15.13745  1        2
siesta:      0.39005  16.20886   0.43764  1        3
siesta:     10.73622  15.05468   0.97199  1        4
siesta:      0.09926  10.86590   6.82822  1        5
siesta:     10.31388   7.56158  16.75884  1        6
siesta:      8.03764  11.69087  15.77122  1        7
siesta:     12.25581  10.72365   0.54573  1        8
siesta:      5.73165   5.59942   4.97279  1        9
siesta:     11.76464   4.65735  13.39198  1       10
siesta:      7.71982   7.49445   8.61702  1       11
siesta:      1.93888   8.13587   3.74230  1       12
siesta:      4.89512  13.81925   0.23845  1       13
siesta:      8.50026  16.94477   4.38610  1       14
siesta:      6.04845  15.00182  12.97422  1       15
siesta:      5.75697   8.04936   1.06071  1       16
siesta:      3.39082  14.73889  13.62686  2       17
siesta:      0.41232   8.28611   6.03197  2       18
siesta:      1.83214  10.12081   1.93905  2       19
siesta:      3.71680  10.03617  12.86647  2       20
siesta:     11.64890   5.32375  16.08037  2       21
siesta:      8.06381   9.06112  16.96007  2       22
siesta:     15.84617  12.44396   8.61821  2       23
siesta:      7.26297   6.30033  14.47665  2       24
siesta:      8.73769  12.42543   9.42126  2       25
siesta:      4.36808   6.97149   3.14388  2       26
siesta:     15.19217   2.44280   9.94983  2       27
siesta:      7.36579   0.23607   6.68001  2       28
siesta:      9.97107   2.81161  12.69430  2       29
siesta:     10.32680  12.49749   0.22077  2       30
siesta:      8.31960  14.27202  14.43926  2       31
siesta:     10.62898   0.01836   2.77167  2       32
siesta:     13.34099   5.87442  11.62833  2       33
siesta:      0.27176  12.70994  10.74047  3       34
siesta:      2.92871  12.10778   0.87426  3       35
siesta:     14.19180   6.27772   9.23567  3       36
siesta:     13.65287   2.50297   5.22705  3       37
siesta:      2.70403   7.70877  12.27791  3       38
siesta:      0.15534   3.97922  10.68184  3       39
siesta:     15.13982  10.18862   3.36125  3       40
siesta:     10.56406  15.44133  13.96032  3       41
siesta:     12.53318   3.77068   0.93919  3       42
siesta:     10.53040   5.58515   5.34755  3       43
siesta:     12.57448   6.33075   4.37284  3       44
siesta:     15.81014   6.81224   7.45298  3       45
siesta:      2.04884  16.00253  15.37913  3       46
siesta:      1.34199   6.07055  11.09857  3       47
siesta:      7.38211   0.99000   9.04124  3       48
siesta:     13.45351  13.18446   8.32435  3       49
siesta:      8.26844   1.90353  11.09670  3       50
siesta:      6.43579   1.39586  15.79467  3       51
siesta:      8.22306   5.89736   6.32038  3       52
siesta:      7.24393  14.08575  10.63969  3       53
siesta:      5.87628  16.29078  16.92268  3       54
siesta:     15.18724  12.57822   3.01998  3       55
siesta:     14.53121   1.98850   7.46862  3       56
siesta:      8.00279   9.96750   9.46800  3       57
siesta:     11.03382  13.18055   8.58694  3       58
siesta:     12.36102   2.14266   2.97953  3       59
siesta:     13.78849   1.15826  11.68476  3       60
siesta:     15.99488  14.67941   2.16662  3       61
siesta:     12.34640  16.40601  12.61510  3       62
siesta:      6.06307  10.46327  13.97086  3       63
siesta:     14.19520   7.98053   3.66735  3       64

siesta: System type = bulk      

initatomlists: Number of atoms, orbitals, and projectors:     64   832   512

siesta: ******************** Simulation parameters ****************************
siesta:
siesta: The following are some of the parameters of the simulation.
siesta: A complete list of the parameters used, including default values,
siesta: can be found in file out.fdf
siesta:
redata: Spin configuration                          = none
redata: Number of spin components                   = 1
redata: Time-Reversal Symmetry                      = T
redata: Spin spiral                                 = F
redata: Long output                                 =   F
redata: Number of Atomic Species                    =        3
redata: Charge density info will appear in .RHO file
redata: Write Mulliken Pop.                         = NO
redata: Matel table size (NRTAB)                    =     1024
redata: Mesh Cutoff                                 =   400.0000 Ry
redata: Net charge of the system                    =     0.0000 |e|
redata: Min. number of SCF Iter                     =        0
redata: Max. number of SCF Iter                     =     1000
redata: SCF convergence failure will abort job
redata: SCF mix quantity                            = Hamiltonian
redata: Mix DM or H after convergence               =   F
redata: Recompute H after scf cycle                 =   F
redata: Mix DM in first SCF step                    =   T
redata: Write Pulay info on disk                    =   F
redata: New DM Occupancy tolerance                  = 0.000000000001
redata: No kicks to SCF
redata: DM Mixing Weight for Kicks                  =     0.5000
redata: Require Harris convergence for SCF          =   F
redata: Harris energy tolerance for SCF             =     0.000100 eV
redata: Require DM convergence for SCF              =   T
redata: DM tolerance for SCF                        =     0.000010
redata: Require EDM convergence for SCF             =   F
redata: EDM tolerance for SCF                       =     0.001000 eV
redata: Require H convergence for SCF               =   T
redata: Hamiltonian tolerance for SCF               =     0.001000 eV
redata: Require (free) Energy convergence for SCF   =   F
redata: (free) Energy tolerance for SCF             =     0.000100 eV
redata: Using DFT-D3 dispersion                     =   F
redata: Using Saved Data (generic)                  =   F
redata: Use continuation files for DM               =   T
redata: Neglect nonoverlap interactions             =   F
redata: Method of Calculation                       = Diagonalization
redata: Electronic Temperature                      =    50.0000 K
redata: Fix the spin of the system                  =   F
redata: Max. number of TDED Iter                    =        1
redata: Number of TDED substeps                     =        3
redata: Dynamics option                             = Single-point calculation
mix.SCF: Pulay mixing                            = Pulay
mix.SCF:    Variant                              = stable
mix.SCF:    History steps                        = 10
mix.SCF:    Linear mixing weight                 =     0.025000
mix.SCF:    Mixing weight                        =     0.025000
mix.SCF:    SVD condition                        = 0.1000E-07
redata: ***********************************************************************

%block SCF.Mixers
  Pulay
%endblock SCF.Mixers

%block SCF.Mixer.Pulay
  # Mixing method
  method pulay
  variant stable

  # Mixing options
  weight 0.0250
  weight.linear 0.0250
  history 10
%endblock SCF.Mixer.Pulay

DM_history_depth set to one: no extrapolation allowed by default for geometry relaxation
Size of DM history Fstack: 1
Total number of electrons:   257.000000
Total ionic charge:   257.000000

* ProcessorY, Blocksize:    6  35


* Orbital distribution balance (max,min):    35    27

k-point displ. along   1 input, could be:     0.00    0.50
k-point displ. along   2 input, could be:     0.00    0.50
k-point displ. along   3 input, could be:     0.00    0.50
 Kpoints in:          320 . Kpoints trimmed:          296

siesta: k-grid: Number of k-points = 296
siesta: k-points from Monkhorst-Pack grid
siesta: k-cutoff (effective) =    35.975 Ang
siesta: k-point supercell and displacements
siesta: k-grid:     8     0     0      0.000
siesta: k-grid:     0     8     0      0.000
siesta: k-grid:     0     0     8      0.000

diag: Algorithm                                     = D&C
diag: Parallel over k                               =   F
diag: Use parallel 2D distribution                  =   T
diag: Parallel block-size                           = 35
diag: Parallel distribution                         =     4 x     6
diag: Used triangular part                          = Lower
diag: Absolute tolerance                            =  0.100E-15
diag: Orthogonalization factor                      =  0.100E-05
diag: Memory factor                                 =  1.0000

superc: Internal auxiliary supercell:     3 x     3 x     3  =      27
superc: Number of atoms, orbitals, and projectors:   1728  22464  13824


ts: **************************************************************
ts: Save H and S matrices                           =    F
ts: Save DM and EDM matrices                        =    F
ts: Only save the overlap matrix S                  =    F
ts: **************************************************************

************************ Begin: TS CHECKS AND WARNINGS ************************
************************ End: TS CHECKS AND WARNINGS **************************


                     ====================================
                        Single-point calculation
                     ====================================

superc: Internal auxiliary supercell:     3 x     3 x     3  =      27
superc: Number of atoms, orbitals, and projectors:   1728  22464  13824

outcell: Unit cell vectors (Ang):
        8.993770    0.000000    0.000000
        0.000000    8.993770    0.000000
        0.000000    0.000000    8.993770

outcell: Cell vector modules (Ang)   :    8.993770    8.993770    8.993770
outcell: Cell angles (23,13,12) (deg):     90.0000     90.0000     90.0000
outcell: Cell volume (Ang**3)        :    727.4872
<dSpData1D:S at geom step 0
  <sparsity:sparsity for geom step 0
    nrows_g=832 nrows=35 sparsity=.0670 nnzs=46378, refcount: 7>
  <dData1D:(new from dSpData1D) n=46378, refcount: 1>
refcount: 1>
new_DM -- step:     1
Initializing Density Matrix...

Attempting to read DM from file... Failed...
DM filled with atomic data:
<dSpData2D:DM initialized from atoms
  <sparsity:sparsity for geom step 0
    nrows_g=832 nrows=35 sparsity=.0670 nnzs=46378, refcount: 8>
  <dData2D:DM n=46378 m=1, refcount: 1>
refcount: 1>
No. of atoms with KB's overlaping orbs in proc 0. Max # of overlaps:      90     320

InitMesh: MESH = 120 x 120 x 120 = 1728000
InitMesh: Mesh cutoff (required, used) =   400.000   492.018 Ry
New grid distribution [1]: sub = 2
New grid distribution [2]: sub = 2
New grid distribution [3]: sub = 2
Setting up quadratic distribution...

stepf: Fermi-Dirac step function

siesta: Program's energy decomposition (eV):
siesta: Ebs     =     -3245.333808
siesta: Eions   =     18971.403089
siesta: Ena     =      4892.918779
siesta: Ekin    =      7877.974872
siesta: Enl     =      -678.925569
siesta: Eso     =         0.000000
siesta: Edftu   =         0.000000
siesta: DEna    =      -454.234639
siesta: DUscf   =        79.829759
siesta: DUext   =         0.000000
siesta: Ex      =     -3394.236132
siesta: Ec      =      -343.673136
siesta: Exc     =     -3737.909268
siesta: EbV     =         0.000000
siesta: eta*DQ  =         0.000000
siesta: Emadel  =         0.000000
siesta: Emeta   =         0.000000
siesta: Emolmec =         0.000000
siesta: Ekinion =         0.000000
siesta: Eharris =    -10801.412972
siesta: Etot    =    -10991.749154
siesta: FreeEng =    -10991.750860

        iscf     Eharris(eV)        E_KS(eV)     FreeEng(eV)     dDmax    Ef(eV) dHmax(eV)
   scf:    1   -10801.412972   -10991.749154   -10991.750860  1.900142 -6.005435 11.926359
             Section          Calls    Walltime % sect.
 IterSCF                          1     112.740  100.00
  compute_dm                      1     111.899   99.25
  setup_H                         1       0.828    0.73
  MIXER                           1       0.000    0.00
timer: Routine,Calls,Time,% = IterSCF        1     112.740  93.91
   scf:    2   -11005.101390   -10998.647930   -10998.649696  0.022561 -5.944502 10.097274
   scf:    3   -11025.063368   -11018.516436   -11018.517986  0.122205 -5.699449  6.258673
   scf:    4   -11019.555307   -11019.314784   -11019.316301  0.026539 -5.697560  4.810894
   scf:    5   -11025.014129   -11024.752324   -11024.753856  0.131806 -5.466905  4.849977
   scf:    6   -11024.981818   -11024.877100   -11024.878617  0.009188 -5.467680  4.568098
   scf:    7   -11028.389685   -11027.398111   -11027.399710  0.071437 -5.316079  1.311433
   scf:    8   -11026.951487   -11027.390672   -11027.392564  0.027238 -5.261533  2.374719
   scf:    9   -11027.785874   -11027.978682   -11027.980331  0.049628 -5.164098  1.162088
   scf:   10   -11028.232833   -11028.126490   -11028.128206  0.009169 -5.150785  0.612266
   scf:   11   -11028.327287   -11028.269239   -11028.270998  0.016348 -5.116901  0.488199
   scf:   12   -11028.340379   -11028.308790   -11028.310549  0.007108 -5.105821  0.361563
   scf:   13   -11028.348186   -11028.332938   -11028.334676  0.006961 -5.095321  0.149332
   scf:   14   -11028.351663   -11028.344088   -11028.345819  0.005657 -5.090792  0.075507
   scf:   15   -11028.347351   -11028.345923   -11028.347650  0.001667 -5.090965  0.068891
   scf:   16   -11028.348204   -11028.347224   -11028.348945  0.001612 -5.091638  0.039657
   scf:   17   -11028.349128   -11028.348306   -11028.350020  0.002189 -5.094192  0.026901
   scf:   18   -11028.348633   -11028.348492   -11028.350207  0.000498 -5.094876  0.017938
   scf:   19   -11028.349211   -11028.348886   -11028.350598  0.001603 -5.096730  0.015604
   scf:   20   -11028.349065   -11028.348979   -11028.350691  0.000566 -5.097067  0.014559
   scf:   21   -11028.349087   -11028.349035   -11028.350747  0.000336 -5.097955  0.012314
   scf:   22   -11028.349125   -11028.349083   -11028.350794  0.000264 -5.099751  0.011038
   scf:   23   -11028.349185   -11028.349141   -11028.350849  0.000640 -5.102136  0.004318
   scf:   24   -11028.349154   -11028.349148   -11028.350856  0.000099 -5.102216  0.003582
   scf:   25   -11028.349170   -11028.349161   -11028.350869  0.000220 -5.102701  0.002139
   scf:   26   -11028.349163   -11028.349162   -11028.350870  0.000018 -5.102757  0.002033
   scf:   27   -11028.349169   -11028.349166   -11028.350874  0.000123 -5.103108  0.001554
   scf:   28   -11028.349168   -11028.349167   -11028.350875  0.000049 -5.103284  0.001123
   scf:   29   -11028.349168   -11028.349168   -11028.350876  0.000056 -5.103520  0.000542
   scf:   30   -11028.349168   -11028.349168   -11028.350876  0.000005 -5.103536  0.000494

SCF Convergence by DM+H criterion
max |DM_out - DM_in|         :     0.0000050247
max |H_out - H_in|      (eV) :     0.0004943225
SCF cycle converged after 30 iterations

Using DM_out to compute the final energy and forces
No. of atoms with KB's overlaping orbs in proc 0. Max # of overlaps:      90     320

siesta: E_KS(eV) =           -11028.3492

siesta: E_KS - E_eggbox =    -11028.3492

siesta: Atomic forces (eV/Ang):
----------------------------------------
   Tot    0.001855   -0.000123    0.000344
----------------------------------------
   Max    5.486327
   Res    1.884966    sqrt( Sum f_i^2 / 3N )
----------------------------------------
   Max    5.486327    constrained

Stress tensor Voigt[x,y,z,yz,xz,xy] (kbar):     -101.68     -143.51      -42.90        1.12      -27.62       18.90
(Free)E + p*V (eV/cell)   -10984.7474
Target enthalpy (eV/cell)   -11028.3509

siesta: Program's energy decomposition (eV):
siesta: Ebs     =     -3660.728143
siesta: Eions   =     18971.403089
siesta: Ena     =      4892.918779
siesta: Ekin    =      7506.369954
siesta: Enl     =      -579.585003
siesta: Eso     =         0.000000
siesta: Edftu   =         0.000000
siesta: DEna    =      -234.556154
siesta: DUscf   =        21.109025
siesta: DUext   =         0.000000
siesta: Ex      =     -3319.339614
siesta: Ec      =      -343.863066
siesta: Exc     =     -3663.202680
siesta: EbV     =         0.000000
siesta: eta*DQ  =         0.000000
siesta: Emadel  =         0.000000
siesta: Emeta   =         0.000000
siesta: Emolmec =         0.000000
siesta: Ekinion =         0.000000
siesta: Eharris =    -11028.349168
siesta: Etot    =    -11028.349168
siesta: FreeEng =    -11028.350876

siesta: Final energy (eV):
siesta:  Band Struct. =   -3660.728143
siesta:       Kinetic =    7506.369954
siesta:       Hartree =    5435.663400
siesta:         Edftu =       0.000000
siesta:       Eso     =       0.000000
siesta:    Ext. field =       0.000000
siesta:         Exch. =   -3319.339614
siesta:         Corr. =    -343.863066
siesta:     Bulk bias =       0.000000
siesta:   Exch.-corr. =   -3663.202680
siesta:  Ion-electron =  -17949.802479
siesta:       Ion-ion =   -2357.377363
siesta:       Ekinion =       0.000000
siesta: D3 dispersion =       0.000000
siesta:         Total =  -11028.349168
siesta:         Fermi =      -5.103536

siesta: Atomic forces (eV/Ang):
siesta:      1   -1.953157    0.093131   -1.208044
siesta:      2    1.556336    2.970926   -0.743593
siesta:      3   -0.181682   -0.003712   -0.272638
siesta:      4    0.683679   -0.056598   -2.470926
siesta:      5    0.356582    0.113798    0.030870
siesta:      6    1.284910    3.531919    0.121469
siesta:      7   -1.188621    0.946268   -0.147666
siesta:      8   -0.999285   -2.447229    0.293408
siesta:      9    0.625810    0.268786   -0.128226
siesta:     10    0.365025    0.007401   -2.184142
siesta:     11    0.292511    1.247375    0.267765
siesta:     12    1.483071    0.354923   -1.247552
siesta:     13    0.311986   -2.473227    0.881292
siesta:     14   -1.423209    0.011473    2.718834
siesta:     15    0.233327   -0.096278   -0.679729
siesta:     16    1.259021    0.192612   -1.282857
siesta:     17   -0.679313    0.897144   -1.253486
siesta:     18    1.979533   -1.174145    4.169624
siesta:     19    1.669492    3.927741   -1.956936
siesta:     20    0.490320   -2.114841    0.924975
siesta:     21    1.594971   -2.848701    3.335458
siesta:     22   -1.468604   -2.370183    5.446420
siesta:     23    1.727677   -0.195391   -0.047525
siesta:     24   -2.912191   -1.686777   -1.369351
siesta:     25   -1.346304    0.506266    0.608324
siesta:     26    0.420524   -1.603337    0.661101
siesta:     27    1.204560   -4.138341   -0.290713
siesta:     28    0.851642    0.606275   -1.721607
siesta:     29   -4.524296   -0.747075   -3.069505
siesta:     30    5.147403    0.483940    5.155890
siesta:     31    1.576843    1.853485   -4.110070
siesta:     32   -0.419276   -0.895482    0.028106
siesta:     33   -0.324354    3.413207   -3.280868
siesta:     34   -0.497585   -0.032295   -0.731507
siesta:     35   -2.364058   -5.486327    2.832358
siesta:     36   -2.070051    2.304637    4.523778
siesta:     37    1.377799   -0.806650    3.187811
siesta:     38    2.008491    2.391388    0.625062
siesta:     39   -0.113492   -2.555088   -1.151855
siesta:     40   -2.153508   -0.694084   -1.443214
siesta:     41   -1.058144   -1.361530    3.911965
siesta:     42   -0.407248    0.354220   -0.529605
siesta:     43   -2.545140   -0.380515    1.019269
siesta:     44    1.084106    0.022541   -0.538034
siesta:     45    0.393224    0.178102   -0.161793
siesta:     46   -0.173245    0.316532   -0.543214
siesta:     47    1.572962    0.733719    1.359393
siesta:     48   -0.034388   -1.997580   -2.301854
siesta:     49   -4.871163    0.050721    0.273214
siesta:     50    3.218267    3.322366    2.355143
siesta:     51   -1.011241   -0.007537    1.544244
siesta:     52   -1.960960   -1.018877    0.806375
siesta:     53   -0.562051   -0.236170   -1.896641
siesta:     54    0.338326    3.625363    1.803411
siesta:     55   -1.349758    3.671202    0.070214
siesta:     56   -0.254064   -0.214829   -1.521577
siesta:     57   -0.129371   -0.785761    0.105291
siesta:     58    3.989455    0.206768   -0.753569
siesta:     59   -0.157613   -0.410176   -3.730084
siesta:     60    1.375783    0.843081   -0.165795
siesta:     61    0.081895    2.233254   -0.633030
siesta:     62    1.871025   -1.092351   -0.957443
siesta:     63   -2.034582   -1.546933   -2.447412
siesta:     64   -1.256748   -0.202666   -2.088659
siesta: ----------------------------------------
siesta:    Tot    0.001855   -0.000123    0.000344

siesta: Stress tensor (static) (eV/Ang**3):
siesta:    -0.063465    0.011795   -0.017241
siesta:     0.011796   -0.089572    0.000697
siesta:    -0.017241    0.000697   -0.026774

siesta: Cell volume =        727.487158 Ang**3

siesta: Pressure (static):
siesta:                Solid            Molecule  Units
siesta:           0.00065280          0.00062905  Ry/Bohr**3
siesta:           0.05993714          0.05775697  eV/Ang**3
siesta:          96.02988966         92.53686936  kBar
(Free)E+ p_basis*V_orbitals  =      -10994.466293
(Free)Eharris+ p_basis*V_orbitals  =      -10994.466293

cite: Please see "aiida.bib" for an exhaustive BiBTeX file.
cite: Please clearly indicate Siesta version in published work: NO_VERSION_LABEL_AVAILABLE
cite: This calculation has made use of the following articles
cite: which are encouraged to be cited in a published work.
        Primary SIESTA paper
          DOI: www.doi.org/10.1088/0953-8984/14/11/302


             Section          Calls    Walltime       %
 global_section                   1    3411.923  100.00
  siesta                          1    3411.923  100.00
   Setup                          1       0.219    0.01
    bands                         1       0.000    0.00
    KSV_init                      1       0.000    0.00
   IterGeom                       1    3411.440   99.99
    geom_init                     1       7.090    0.21
     state_init                   1       0.777    0.02
      hsparse                     1       0.016    0.00
      overlap                     1       0.291    0.01
     Setup_H0                     1       5.206    0.15
      naefs                       1       0.002    0.00
      MolMec                      1       0.000    0.00
      kinefsm                     1       0.288    0.01
      nlefsm                      1       1.397    0.04
      DHSCF_Init                  1       3.519    0.10
       DHSCF1                     1       0.048    0.00
        INITMESH                  1       0.000    0.00
       DHSCF2                     1       3.470    0.10
        REMESH                    1       2.084    0.06
         INITMESH                 2       1.912    0.06
          SPLOAD                  2       1.911    0.06
        REORD                     2       0.000    0.00
        PHION                     1       0.782    0.02
        COMM_BSC                  1       0.002    0.00
        POISON                    1       0.013    0.00
         fft                      2       0.012    0.00
     setup_H                      1       1.107    0.03
      DHSCF                       1       1.106    0.03
       DHSCF3                     1       1.106    0.03
        rhoofd                    1       0.416    0.01
        COMM_BSC                  2       0.247    0.01
        POISON                    1       0.069    0.00
         fft                      2       0.069    0.00
        XC                        1       0.107    0.00
         COMM_BSC                 2       0.002    0.00
         GXC-CellXC               1       0.105    0.00
          gridxc@cellXC           1       0.105    0.00
        vmat                      1       0.265    0.01
    IterSCF                      30    3401.206   99.69
     compute_dm                  30    3376.690   98.97
      diagon                     30    3376.680   98.97
       c-eigval                8880    1589.210   46.58
        c-buildHS              8880       5.884    0.17
        cdiag                  8880    1583.313   46.41
         cdiag1                8880      90.779    2.66
         cdiag2                8880     314.826    9.23
         cdiag3                8880    1160.837   34.02
       c-eigvec                8880    1649.032   48.33
        cdiag                  8880    1643.578   48.17
         cdiag1                8880      91.347    2.68
         cdiag2                8880     315.417    9.24
         cdiag3                8880    1163.613   34.10
         cdiag4                8880      62.277    1.83
       c-buildD                8880     137.231    4.02
     setup_H                     30      24.039    0.70
      DHSCF                      30      24.024    0.70
       DHSCF3                    30      24.024    0.70
        rhoofd                   30      12.529    0.37
        COMM_BSC                 60       0.874    0.03
        POISON                   30       0.325    0.01
         fft                     60       0.298    0.01
        XC                       30       2.214    0.06
         COMM_BSC                60       0.040    0.00
         GXC-CellXC              30       2.172    0.06
          gridxc@cellXC          30       2.172    0.06
        vmat                     30       8.035    0.24
     MIXER                       29       0.074    0.00
    PostSCF                       1       3.136    0.09
     naefs                        1       0.002    0.00
     kinefsm                      1       0.013    0.00
     nlefsm                       1       0.067    0.00
     DHSCF                        1       2.424    0.07
      DHSCF3                      1       0.772    0.02
       rhoofd                     1       0.416    0.01
       COMM_BSC                   2       0.021    0.00
       POISON                     1       0.009    0.00
        fft                       2       0.008    0.00
       XC                         1       0.074    0.00
        COMM_BSC                  2       0.001    0.00
        GXC-CellXC                1       0.073    0.00
         gridxc@cellXC            1       0.073    0.00
       vmat                       1       0.250    0.01
      DHSCF4                      1       1.651    0.05
       REORD                     10       0.001    0.00
       COMM_BSC                   2       0.015    0.00
       dfscf                      1       1.533    0.04
     overfsm                      1       0.013    0.00
     MolMec                       1       0.000    0.00
     writeHSX                     1       0.020    0.00
    state_analysis                1       0.001    0.00
    siesta_move                   1       0.000    0.00
   Analysis                       1       0.259    0.01
    optical                       1       0.000    0.00

>> End of run:  14-APR-2024  22:21:38
Job completed
