64
Lattice="8.179586931343321 0.0 0.0 0.0 8.179586931343321 0.0 0.0 0.0 8.179586931343321" Properties=species:S:1:pos:R:3:forces:R:3 energy=-17116.2915881 pbc="T T T"
B 2.228249535530129 7.149688597148339 1.020067288662201 0.15234203304295982 -0.007990477392862141 0.9517646393102794 
B 2.5230295791553456 2.984275668255102 3.0505164171012 -0.9366084947271518 -0.4476012027459028 1.4891991916654383 
B 5.196745962635977 6.189446807301983 6.896374969471567 0.5222439549767858 0.591332350971167 -1.3592373344594593 
B 0.2290333418297718 7.090924808716182 6.457533586935453 -1.2812935416453033 0.36259535823763067 -0.5136161008718796 
B 3.1358016981995442 5.2018303938725 3.645431679915583 -0.2213047020457357 0.22553776787352653 0.00877260726702028 
B 5.357331703065574 6.266496880277851 3.2579801881930193 -0.11531633390164124 0.3745183393863274 -0.7631456126465627 
B 6.731468771224834 3.165260480532777 0.9708597116419329 -0.14140866987113185 -0.12243212167192416 -0.7641344592921946 
B 0.3043411627892635 5.811245610440075 0.5371821023355756 -0.06663839087575764 -0.7277085987427271 -0.09411938018197674 
B 6.430976104086767 0.7166087033028296 6.563243296601362 -1.1589604074821072 -0.8704287888269032 1.66324288616737 
B 7.846537054342429 5.075122048636446 2.6390030345027036 0.31876060404788015 0.7669161368426604 0.543273015597231 
B 4.885411253020415 3.0171772387277374 6.074335480417188 -0.06810366311534581 0.6148412415180602 0.7332007342594569 
B 3.105131519041779 3.908056131396302 7.096924535730322 -0.7855604983892013 -0.9351918163554849 0.3426713581691683 
B 3.896662784759634 5.885806635112735 0.3061202229468306 1.6952233076885026 1.0836715367851628 1.1234079510031576 
B 4.002111565602433 0.39576849571435346 0.13906933700669916 0.1705786174756234 1.931188188332076 -0.47832538279263176 
B 1.6652649262196308 2.024686609445867 0.7982990559448485 2.3440936264927488 -1.0378822292412537 -0.055842067553675316 
B 0.4051643872223875 3.9078516417230182 4.5116973775490425 0.5489117040489607 -0.059950691941922214 0.8501067818402301 
B 0.11677423690793666 1.1771431683395595 2.727662395210227 1.171594813141585 0.7316740126313336 0.23391802465140632 
B 1.1505799597800221 7.461899340524247 3.526134040439327 -0.9151850267342679 -0.8261731448922489 0.5093465253655448 
B 7.555391201190808 5.99481926198152 4.477318573676606 -0.40416702657848574 0.24866202124364778 1.427947263926963 
B 2.2033827733001523 4.450783175712635 1.278177426115512 0.081394214546964 -0.36529270357286836 0.5923939598634743 
B 1.091691841626509 1.7554710468158714 4.752022639137533 -0.4922458547343378 0.19453102348370105 0.9575830479401936 
B 5.188001984206371 1.1086620306329669 4.692601211916097 -0.2788120737397537 -0.2506024335251308 -1.7421863242644735 
B 0.3699013700026733 1.0669199626049357 6.643074429133886 0.1745013510357913 0.8393024880953671 0.03937028899090702 
B 7.6210749201668815 0.052357535947528594 4.691230313146403 -0.8186182125377905 0.10012496519203125 -0.39256157678895587 
B 6.496815235214536 2.4489405166486238 2.9470323730393093 0.13310708887940995 0.7335090096437815 0.8806229595634238 
B 2.866507611535007 6.9610027037748035 6.81127700091395 -0.8141851148092453 -0.4543112702856067 -0.15725952678824207 
B 0.4038442018916687 7.931335650018358 0.5289100860719081 -1.072168931160545 -0.965989529980126 0.015810490582382125 
B 6.281017282998371 0.6400371361624453 1.2412204164423166 -0.01091896498874025 -1.2896871681646216 0.0860216877471935 
B 3.8057311348025835 7.316561168093366 4.613936488479982 -0.3974096507229222 0.5256231571253921 -0.35488281720044407 
B 6.921483847474712 5.085273733976937 7.559066289599061 -0.30426549033472655 -0.13909956125843814 0.3906805570127096 
B 4.729278479716241 2.971356010697045 1.8477703237078424 -1.944652546402396 0.5154251297326872 -0.2594022944958529 
B 3.2202338483809494 1.191899961122396 4.188079382238682 -0.2011778418619838 0.5576516582936214 0.9316634901677556 
N 6.392592574452745 5.284180839179878 1.3684923352179394 4.082407610837861 -1.5768296192622726 -0.6725247338444905 
N 3.1994356126906225 1.92831471622078 6.260253401573156 1.8817491984858417 1.334486857731662 -1.1565764797394398 
N 0.08020330373790066 4.989835131620716 6.236724001806453 -1.9344128671229017 2.360412938581035 -0.44513782788584066 
N 5.313557007685104 1.913382880277613 7.857848605109783 1.5461802583455175 -1.7673065257651301 -0.5623554932862983 
N 6.731274097055868 7.371300599755302 7.788704102903059 0.288833723389634 1.1680708578308645 -2.2077461750873644 
N 4.136670678375189 5.3403377932570155 5.370379780138453 -0.055085391610332976 1.9566482897977684 -1.0441513524238961 
N 5.133930006838033 4.204604601716075 7.953598849728088 0.20286988548520365 2.359578872403596 -2.004113185898511 
N 2.135384231222509 0.9506569498802079 2.3118563653901614 -2.380949632761962 1.872577812969374 -0.2355990125268981 
N 0.5158644628751087 3.7790386887695306 0.3674172294516244 1.0971073555997195 0.7296464399200873 2.6333456685231638 
N 6.046528974644087 4.437317121747565 3.5235452011755566 0.8412853235948765 1.9011746614648917 1.7650285275123228 
N 6.17208399812282 4.349937048436104 5.4973441464454575 -2.915028637126445 -2.0868472028038703 -0.7156568052774777 
N 3.3262380231763857 7.2700536727191345 2.646626409522715 0.49445803272160166 -0.572725527544819 0.897599188755087 
N 1.9309354558735825 5.440053501619636 7.287856543675204 2.9319652713146165 1.2301550519738926 -0.034901710025467034 
N 4.311668850977814 0.9197242059819469 2.054888916231159 0.49034169502098635 0.3007510481092605 -3.4219791505599453 
N 7.531996764608474 7.204699591096395 2.2280016940461094 2.332855330371956 1.4708229962789063 -0.7662497066540286 
N 4.157072204099346 4.82784332019762 2.0820803170670237 -2.0777832894397363 -1.1552747297220622 1.033499010932691 
N 4.491447174183116 3.0305925792538337 3.9981894536688536 -0.009350077253002917 -2.7108616296112844 -1.007990829819902 
N 1.9329198236631264 8.014056630613727 5.3412367298607695 0.6962490829168752 -1.5906025098273298 -2.428750315061144 
N 5.9980763734975815 6.902072869727942 5.298743775752442 1.1043650683175814 -1.8488560350011118 -0.8880318532037069 
N 7.055193101165302 2.198614892077872 4.788762071798355 -0.07778515568977866 -0.14688923541930898 -2.48066270707352 
N 0.5868199256284325 3.243960376192697 2.512603059693962 0.5625789222345703 0.9624905143793968 2.324978495781322 
N 7.202490284666239 2.8681966962363297 6.923291536186539 0.4449997595944459 -0.7531221632237964 -0.05533453159983306 
N 1.2335585973637275 2.9525601378875113 6.601528671192207 -1.1115068242395048 -2.3982647334770117 -0.7220570547703832 
N 7.876718094201699 1.4690603565388056 0.5358970892286616 0.9192100902385237 -3.8908834936257843 2.237344725749128 
N 5.157381700528887 7.02889736509842 1.3159123145058784 -0.895702742354104 -1.023855056478451 -0.4305601817303449 
N 3.293581840311691 2.7813973735969935 0.5570993965133966 -3.4484131862673566 2.277152873772149 0.9928218297161607 
N 1.7133838002193376 5.794515901289399 5.013249199211686 0.7772810288929355 -1.0688352375549124 -1.9830645848867328 
N 2.62637129840463 3.747054867950592 5.088905470574454 -0.7400141601848975 1.1999281234645147 -1.2904407587830167 
N 2.143591628749419 0.5793495088840367 7.687997846563054 0.6705496116573496 -0.6599157821158287 2.149378254843443 
N 4.475115810915995 0.09091610874188101 6.4584791471847165 -0.246333629350033 -0.8248981343577486 1.898958369711031 
N 1.4749758338075531 5.740183813056643 2.5955645201451114 -0.6158956513188237 -0.12153454922265196 -1.0173000265173524 
N 5.953306222387567 0.10041179121047747 3.3506483644555938 0.25922463120096684 1.1768426937666479 2.801946335597111 