64
Lattice="7.940940692298297 0.0 0.0 0.0 7.940940692298297 0.0 0.0 0.0 7.940940692298297" Properties=species:S:1:pos:R:3:forces:R:3 energy=-17136.6174308 pbc="T T T"
B 3.573226376205065 5.738779665955933 6.8575803882819795 0.5980190214633533 -0.46368525880695166 1.514752109989964 
B 1.0587957980787628 7.442971448330894 4.520806123511913 -1.8203702582036996 -0.7596597096768598 1.0045951726049098 
B 1.4153781812079331 4.483266120483142 2.0165216853081604 1.1271535354892641 -1.266330744092211 -0.4340185738859337 
B 4.467739993241561 7.365455955763024 0.14611330873828868 0.015215279977952115 -1.059295927038471 1.9047369262270415 
B 2.702465700967372 6.072718456701015 4.563375918375185 0.8694687385474467 1.0155082240541677 0.0030297890983167347 
B 7.369121493986589 4.930576133304028 5.331149739680393 -0.7239738128939365 -0.3451614725121077 -0.05440019236160469 
B 2.3630929245065504 1.1708361184945377 0.5341561107022065 1.1381012968441797 -1.813478156492101 1.4551870836664629 
B 3.6503376748916962 2.5435944769128365 2.585927631743479 0.17445635671364215 0.14646834567440534 0.18360717339712745 
B 6.122993346318025 3.084552003317997 7.0662683096755785 0.14579651616711567 1.491643026134167 -0.5089711441636149 
B 4.742201138201328 2.0238837314239904 5.645637196199689 -0.7106081852219323 0.19356248856063935 -0.7793250566705677 
B 1.593811118563876 3.0364044917124535 0.3539309030320121 -0.07127383449876785 -2.6348579919681994 -1.3549106804415982 
B 7.12667663371003 1.2358581290712147 3.9772352335249175 0.703723796822702 1.0638876618913933 0.5313826874708939 
B 2.4384278347603154 1.1883411281566403 5.848098625996458 -1.6429226789535827 1.081254441799311 1.0089426525661658 
B 5.804481421055871 2.3090119420157222 1.129790190150117 -0.6819547724357128 1.4328148782522627 0.5128195728146338 
B 3.086421300756964 0.4640638094934971 3.727966722911466 2.294569533100049 0.2849156178168871 -1.5478581608960618 
B 5.792766945346593 0.5870681867231285 2.3711370974278485 -1.2882591769348142 -0.5301207895674198 -1.0249233502414778 
B 6.1321135167031295 0.7626606495934362 7.771845507102428 -0.7525801744747085 0.6512915275566945 -0.47786206982970175 
B 7.46317478964024 3.286964199282473 3.321644669567947 -2.665312463192446 0.8146137178665173 -1.2592730632751035 
B 7.837857752983434 7.878754391642841 0.6403018708420886 -1.8411375804244428 -0.13626209074850743 -0.7902918441959922 
B 1.4975184776349975 3.493504096218805 4.214794032993506 0.15676613190707525 0.026654122220324105 2.144001819012239 
B 5.637190417585292 5.604004432338108 7.150520102232725 -1.2789263260794341 0.8341325119252252 -0.710555734697827 
B 2.008587097368416 6.463046661396177 2.4793371789248284 0.7161345164234953 1.9681763493532018 -2.330005775672648 
B 5.3149931017478425 7.6553082319726045 5.957457290740444 -1.3418504999393837 0.43825189682413673 -1.517148636142833 
B 7.0161887671995995 5.377272311409399 1.020924657823123 -0.3114460699289042 -1.2219257190080215 0.7486152748069266 
B 5.983741010337882 6.756609739191267 3.826983900591872 -0.23987938667054856 -2.021738104660359 2.254808179172063 
B 2.085079796775118 7.254914090855886 7.809113135865453 -1.4629402481487899 -0.013732010009504284 -1.5102277380650588 
B 7.7463018831775114 7.009893189418745 2.7220194733280874 -0.6146579217941041 -0.23300965356481831 0.6811371613246598 
B 7.869698542877343 1.4859659971158419 1.9553669128486328 1.4059584101374738 -0.5562020697891823 0.06347927524006367 
B 4.332810705374305 4.159322591787456 4.569212509784025 -0.4438473907266034 0.4276890297564053 1.5504632035932908 
B 7.300408534176132 6.800879689456762 7.021314644416478 0.16597068466672724 0.4692054193586201 -2.3929206935577554 
B 1.4680440880673937 4.821674072649849 7.15499005774842 -0.5336743125755525 1.2020863082651998 -0.5338434912268332 
B 4.700161798176301 5.070969582461655 2.358389505334502 -0.8514455557569761 -1.0729649449969665 -1.114946447334997 
N 5.291846847817931 5.493063138114147 5.1655827144341115 0.40130435924815155 -1.0044262510640416 0.519474104505285 
N 3.3987369099969174 7.384032198324517 5.788844914738666 0.8481437438424664 -0.7567705599740607 -0.5352617122609741 
N 4.414281580501008 3.807731089883395 6.73886253083805 2.914674853199146 -1.8468863121326287 -0.7573328604457188 
N 1.2322299132689036 1.3893144256676717 4.137160220409321 -0.5347474914364124 -4.207838668358629 2.34047402610866 
N 3.010282767305138 4.779529912207684 0.508320260159814 -1.675534306536865 0.8737056610314218 -2.0807948236987808 
N 4.152099512133741 6.699248354100451 3.5161254539689555 -0.30820930694870147 -0.6730932049660434 0.30740557979991173 
N 2.4033669934156796 2.85188958788028 6.691073949751799 -2.527470686070885 -2.16044120166306 1.242107086599177 
N 1.730483442913091 2.5278618852132557 2.264078129108352 0.19706921747373693 2.9177077276224104 -1.8788006562778055 
N 6.1933469044755105 3.3113405049256204 4.918982359893273 0.3495048387067669 0.8821581658351524 0.8086315299039804 
N 5.407126277942095 2.9112846478823937 2.9531794627868218 -1.9835577226574874 -0.9208304000567171 -3.3420949454643063 
N 0.8579956130748233 5.973320113867379 0.8087228701731816 -0.9023978974898956 0.22373773787714876 1.7386837091179723 
N 4.204837681553502 1.2235449064337371 7.259593687205857 1.6560458515068062 -1.2051839745123585 -1.121285761660192 
N 7.553848420935248 3.5712030245166675 1.3878080292183428 0.46382486976082016 0.47568151642314843 3.215346454191012 
N 3.1781058138021017 4.489057448530035 3.0221790905562704 3.903156402045595 -0.7519065451945328 -0.7637469939008874 
N 6.547521594386777 5.040599454783959 3.0491711420634617 -0.6828016941337657 1.968884431428623 -1.6025072361367545 
N 3.8159769626982776 2.8525486859577405 0.7045043763393204 0.6705796935755864 -0.7130453348199418 1.2820515031407071 
N 0.6381109653050835 5.316165978688095 3.9968525334111713 -1.4436317704073276 -1.7706240214147893 0.9077751046523359 
N 2.5026279579753394 4.569115630307579 5.425509555644766 0.5578046389889285 2.837915568054368 -1.019099028072081 
N 3.2539664143296965 2.4889091888353247 4.473739373934591 1.0444346880982296 -0.8589004721610576 -0.592072314737711 
N 1.1939672846371334 6.4497320861373995 6.263787018886543 -0.3675357348096059 0.22003586216113005 4.241560498702139 
N 0.828038414313128 0.6674543293512641 6.597845717836079 1.668825010328398 1.0993984664835534 0.9622352037400019 
N 6.892753196890376 1.3489085371430503 5.870566723591247 0.426265666514019 0.4977924976584711 -1.5523583644422123 
N 1.5884184257397362 0.3362130761593561 2.152660378442853 0.019118473146786667 -1.0804059774387844 -0.15493396310916238 
N 3.954788576469998 0.76587355419754 1.819905581954993 -0.1114131407328067 1.8992679306474172 2.173558717787213 
N 7.202966045035009 7.114926423767636 5.176454656335937 -0.6920047042309441 -1.3909333918646096 -0.2217438466299113 
N 7.560235319534063 4.40587609477821 7.207898163298995 -0.8304892573832064 0.6771756040922375 -3.9874029995064024 
N 5.04839428216752 0.7411692877038 4.241780525842213 0.438335457708128 0.2889689634664937 1.978806836459363 
N 0.36384675567448493 2.868326541019268 5.68507508405392 2.379475618768357 0.6970726075674104 -1.2045825932580339 
N 5.289896552783903 4.387962920764524 0.9255023439941205 1.0785709804263366 2.6844278510142847 1.791890909166594 
N 3.4737994459849366 6.551122016896664 1.477041173871768 -1.2802910681478206 -0.6928151162504531 -0.6648109072552426 
N 0.0818568048443493 2.0992591404752856 7.829597586475306 3.465515913781862 -0.3001512095174094 1.5604961661013115 
N 5.905369484363383 6.942661215047401 1.4348620732905564 0.6231613344594663 2.6765906114271423 -0.8117451369967006 