64
Lattice="7.335406870508341 0.0 0.0 0.0 7.335406870508341 0.0 0.0 0.0 7.335406870508341" Properties=species:S:1:pos:R:3:forces:R:3 energy=-17184.6484585 pbc="T T T"
B 4.416016898201521 2.312308032000114 1.3902121784242372 -2.3209344061065575 0.7553847348518673 -0.5572333396528405 
B 1.334708822338536 1.3252072698191661 0.42404520037034615 -0.006354998060344088 2.871349434736124 0.6755635218072371 
B 5.807225224878774 1.960154220204872 6.895032320903556 0.5324710358460785 2.6775262362174317 -2.730300205221361 
B 0.8524813752933786 3.827618239194001 6.469548647245904 -0.15758631412225094 1.6375557562076337 -1.5658944563175587 
B 6.363119962502385 1.8752256129988134 1.822882350192927 4.164420690147185 2.341214504096029 3.2281225276876566 
B 1.0810416502681128 3.424206804809707 1.1389898974637545 -0.37282732420475667 -1.0725484261290714 2.686286759295075 
B 3.495405730976235 3.1958687926631493 5.814162319156213 0.14511825889951896 0.459895451329933 1.6453863109240572 
B 5.5851179073280255 4.178261690714605 4.885272411736872 0.5587901431992007 0.854098163880477 1.857526826544869 
B 1.45778594651536 7.0445117750294015 1.6005931145517904 -2.609505876875665 -0.1458001157128876 0.994938362630056 
B 1.9870927683961266 1.0104867728248155 5.4655456405539296 -0.6213173385825885 4.015120530391919 1.2318928612504985 
B 3.077531808406048 6.526861648206559 5.427488816169046 -1.3513517581148076 -1.2992033387439579 0.5459459354433019 
B 3.9690514855235848 0.7740424025456588 6.710209409394228 -1.0074994918220337 -1.2046841518708846 0.07095810291248705 
B 1.4510894535832728 6.868873526462636 7.020227177043896 0.43870235426645265 -1.5968068411860772 0.8928359612571732 
B 0.3905451307334216 6.811413817364571 4.091598259783671 2.7267772783522894 -1.098212930372527 -1.5538891998369322 
B 7.258649173015342 5.306016679015489 1.3076932523751406 1.2589401052912 0.17061384160210585 -0.5772527276842591 
B 3.026933638894655 2.481370088307468 3.282039284252385 -1.3389639213407072 3.085552490084252 -2.9943428284380573 
B 2.1756039224799464 4.516123929304036 4.544589709205731 0.3371532545007982 0.697590427937744 1.1123352339878734 
B 0.325527751936671 3.9682313870354617 3.3792708358616603 0.626269799343941 2.0166398622952433 1.4590391118632535 
B 5.915212683582276 4.2025257495608725 6.875120358953561 -2.4059867875994527 -0.2375080573380829 4.273911159216956 
B 4.955359290221831 2.4811170167704355 3.803550035711176 1.4140568739034938 -0.6052026863824783 0.29243455471362634 
B 2.472062924070167 5.311094247651255 2.749987553120674 -1.600684580424096 -1.1298652790075894 -3.998078995155537 
B 4.288286925446734 6.019974763884814 4.191759572897027 0.6616147677201801 0.038038971276117134 -1.1394560116064871 
B 5.428663948349701 4.59918567546155 2.319463721402295 -0.9605061362174137 -2.95590816423744 -0.5570657036640334 
B 6.560077104056908 5.8574727619417555 5.762168221717363 0.5928120213938429 -1.6528558826216384 1.5150722124532534 
B 7.314995367350464 2.3083806551616437 4.6912685049884155 -0.4541246081262908 -1.3923161316618555 0.669627870829323 
B 3.4559104333040445 0.44302923335122174 3.910710794060371 1.044844522095405 -0.09974084223608376 0.5631137118921142 
B 5.702744090659375 0.48716417586900934 4.677294554900096 0.21805765464904173 1.113385272911628 -1.2832095284376197 
B 6.679091146368158 0.16049650170466134 7.245744725248743 -1.905162701069779 -0.6209167605602551 0.3909124706045869 
B 1.387685130757347 1.4575050004322194 3.367661087407707 -1.314668530042647 -0.8853877297238114 -2.3160619066834243 
B 2.8463307869579304 3.6713968126134713 0.5495584131688662 -0.7736385456821537 1.8216393551987176 -1.5329935795204608 
B 3.539085878268051 7.315084859314285 1.5033446915067132 0.1005427696119875 0.7985132067390824 -0.3808944205004785 
B 5.671601620790632 6.849925436975426 2.3213944004906124 0.6869002912159337 0.5529673636922777 -0.2850724551683784 
N 1.5189515031644067 6.006749758837974 5.10762839958053 3.7525292954525478 0.5193288371223462 -2.1790529101872416 
N 0.3414147761368179 5.612563332134032 7.012219846904049 -1.0131201825449039 1.8978011157453554 0.6877011901501883 
N 4.122220649305295 5.215678942783118 0.5316519514572683 4.06824982598562 3.2983625212186434 -1.1621375208466609 
N 2.5915970467285354 2.02637607280976 7.040904221930485 -0.4226072424576758 -3.3011969064036264 1.5533904056371075 
N 5.768845642591587 2.449595306366487 5.287897490504647 2.953727096610062 -0.4075858237305834 -3.1874191212090737 
N 5.362860213936432 7.055755486680516 6.040576987621324 5.7114021045373695 1.2049109232545163 -3.45466328327949 
N 3.8112800874713173 1.460078261162394 5.239263009412489 -2.8493690655902397 -1.6216737889306376 0.8388034367851301 
N 1.8673239127179018 3.6335468467023353 2.822141549261742 -1.3972601077796025 2.7582270239824744 2.1409033814338434 
N 1.9512006225787295 7.230383649721212 3.237278631528543 -0.017249537559917663 4.146858249215522 -0.9930357455791783 
N 4.012105189068659 3.7586676152332834 2.0988667641261847 3.2515627697544707 -2.8954921024492895 -2.6838349544035656 
N 0.1714093865059166 2.2584081958563056 6.878499780898805 0.10463725292755896 0.023973746172296955 1.2861233607399978 
N 0.7937489731032794 1.9596495442121808 1.9408694355423057 -1.3791685336194655 0.5222506398475051 -3.322268390242098 
N 5.035514014636562 0.66317653018617 0.7294445958543423 -2.4049066667574612 3.9643502228308947 -2.344254834721249 
N 5.529858820291112 5.852355582108889 0.558935263771437 -3.9109759010142904 -4.9845527687924855 2.0629405624491786 
N 3.8136971040351497 4.018361557588516 4.249886070479622 0.814483362887491 -2.4792259740896943 4.000059773771748 
N 0.32142359179262153 0.5755851702861168 5.7449212130834235 2.6571790324103555 -0.7980519506594508 1.3772466332876665 
N 4.348871517871636 5.230450251598261 5.888066543376585 -0.6454628345102891 0.45914880269266956 -2.480416652408967 
N 3.9555587381259723 6.0202945876243685 2.5274694527851778 -2.176108738856214 1.5224032016386153 0.8056495633423478 
N 0.11745526835126661 4.322654773716439 5.06204618128719 -0.7795538849374976 -1.4886286636605872 -0.5457091367535913 
N 6.9349097932737 0.9597103529264696 3.5807487886704776 1.7717486223581054 -1.2342001700903062 4.9913942197528645 
N 1.977254520701401 5.296234913953666 1.103670646922944 -1.7482412744736857 1.1075966890895386 5.718010870574635 
N 3.1059374379714044 6.73101995868586 7.187698183601036 -0.9263315344378767 3.7407505532451406 -1.872339985838014 
N 2.444065143126811 4.559140955814757 6.419653943253392 -0.21180935740979417 -7.485239234774432 -1.3328773465507842 
N 4.82326254975703 0.9277008379656323 3.0039650129017197 -0.8692378533972186 -2.127421796965901 4.874805703531258 
N 0.45471893774006383 5.567900240321569 2.870621253268932 -0.15909632357357595 -3.6048000803163176 -0.15818101050585637 
N 1.6620652912080245 2.597130877671647 4.946058727850713 -2.6302767986421802 -5.663122168429697 -1.7278254221865301 
N 2.9301678856216578 1.5525711399333204 1.714611744784224 5.964486167761835 -0.6221647745014661 0.004593791736220732 
N 6.264210069801138 3.192734373307381 2.9748925948518337 -1.4038678453752187 0.6822152252833532 2.4887817396725223 
N 7.064691479330169 7.308565149687777 1.5891594158627291 -0.956556920284781 -0.8898393394020407 -3.7022058457880678 
N 4.646841613277181 3.1422601721721004 7.126697673606577 1.9354919595232443 -1.1756131917751211 -1.370210806855603 
N 5.95139164380831 5.739189326154809 3.8505303825540333 -5.210109305726108 1.0334236775818926 -0.3346364006749816 
N 6.600085880210035 3.673743409271347 1.0067816588145215 1.81945494513598 3.9870800688285772 -2.61349365937014 