64
Lattice="7.433621638745492 0.0 0.0 0.0 7.433621638745492 0.0 0.0 0.0 7.433621638745492" Properties=species:S:1:pos:R:3:forces:R:3 energy=-17229.4141009 pbc="T T T"
B 6.284501184617331 6.148790014531738 4.683299826993715 -0.034788067223238926 -2.1621304170717446 0.48640456327773074 
B 5.556446334421286 3.558835209116946 4.3185372167156215 3.295506024538204 -0.6756697084075091 0.3561670837097866 
B 5.06254015877543 0.7679927258123684 0.5942667580283947 -3.312804670186867 -0.319128529047854 -1.720582878982993 
B 7.094988951889752 0.8654750098963853 4.079720971138465 0.06197955020522987 1.2045414555920688 1.3773877869040088 
B 3.7655768640472442 4.8537958861756545 1.6791584911113029 1.00462448319191 0.230962797572651 1.3550983710425633 
B 6.699773767206373 7.123466413025621 6.6568631862967145 3.2075536947051937 1.8369178843380907 -0.7356800499650804 
B 2.900611800595277 2.6369449578797934 7.076688118777324 0.2361978226771 -0.5103027189888172 0.8427451965158067 
B 2.99080095848952 3.2927249349688075 4.3255813165804975 0.3524243274382152 -1.5230698889376595 -2.348010189403022 
B 3.75591984617635 5.721924698997071 3.739935329566555 -0.05066823472734914 1.2320676963308492 -0.015971955921294457 
B 7.136726507304816 1.8380060651853276 6.400632195306468 -0.3411999152796854 1.5321944803590921 -2.548000181160269 
B 0.6264149415294774 2.989369986324062 3.957499594240703 -0.5051677098347453 -1.2389896228502726 -2.271791350344858 
B 2.8572685829062436 7.069518390706754 1.2336578294904663 2.637547109770244 -1.6853582382797012 2.5893232237324484 
B 6.450586876081002 4.67867685769658 2.3337022569217933 -0.8270905148432668 0.5845466929702525 2.314743958710073 
B 5.302391164484701 3.334719693692572 1.181264920818424 -0.9392891278855913 -3.774717152701143 -1.8057895267232564 
B 1.9611789456528486 1.4228687745101107 5.400969907760433 -2.9923929030713197 0.24168584442723332 0.2983519508522685 
B 5.039317524775989 2.7795299978947345 6.467918364931737 0.1713237234504131 0.6771331808742113 -1.6545708090715514 
B 5.670900320068723 5.342731199031681 7.261262713980883 -1.7460314104801324 -2.9906118992454505 -2.539200834410371 
B 0.42460846800514246 4.167134414712801 5.835720065767315 -2.6065557920051554 -0.19711292624382465 -0.8213201858604493 
B 4.371929204135911 2.0015806792594306 2.8052243110890585 -0.7240249778659803 2.4848456363709155 -2.8778378731004417 
B 1.2889134258555892 5.09919460371392 2.9660432816216784 1.2661867622613336 1.052127945854495 1.5524390971116686 
B 1.672858496772466 0.44773669500977137 0.08350707540317523 1.0443238735105365 2.191771648061947 4.434377367067164 
B 1.3749286051996772 5.56819071324834 0.4502470290371757 2.7422941488438473 -2.3363391764583605 -1.5614449035226277 
B 3.1139024761893093 4.441554734490893 6.198453297338032 2.727407713083202 1.7973899866644554 1.2615842287710954 
B 0.1722533673373383 6.6571731683190505 1.6799360479347156 -0.7771910402486373 -0.5842499875544805 -0.5629473614553686 
B 1.519909501468786 6.335206661177377 5.13387467874516 -0.6768603867267814 0.05037384330528765 3.8994966924371908 
B 4.502356555960684 0.7179518150268255 4.849043571862005 1.6440074277829952 0.7052183796492902 0.561647411210877 
B 2.2263607604583084 0.38424315914459056 3.2013449108880367 2.9170888628600506 0.8824114195912491 2.043983811751717 
B 3.7067285983441156 6.921629461652568 6.461937272961202 0.028849588030789703 -1.1783249352934466 2.6344435299836024 
B 5.414594992862089 7.185900657807281 2.359355685197104 -3.16372305428204 -0.959818622974975 3.1030498820816086 
B 6.5587312036814716 1.1926160610607885 1.6379427759352785 3.467910640161845 0.7870576523199122 -1.5047618278103818 
B 2.1659432572272403 3.007731775133927 2.076920434568116 0.0762607480553659 0.936588440114994 -2.5207781020392166 
B 0.6141933241932158 3.2520816086589663 0.6342975539152031 1.0365305998038936 -0.38865426985352475 1.048453323842178 
N 4.315586812287203 4.772179180755213 4.991809248882768 -2.0146428857230583 2.0925316569089865 -0.2667217137126622 
N 1.7760148642533373 4.49693967587253 4.492578370057078 -1.1994630107286988 -2.030082880201344 -1.0268367659296713 
N 2.977569111972553 1.0320297628854613 6.568168929714022 -6.261614530162059 -0.8490040352819579 -1.9377812706341924 
N 2.1219979161854683 4.06620367355057 0.6682937357556777 -4.54116740547675 -1.741811200172956 1.0863930504991548 
N 3.0626863098226806 7.033999803154664 4.4369570395073294 0.1305259574505232 -0.7636629187960716 -1.0749935461498616 
N 1.8792559750208901 1.5353208858502332 1.4000847241873557 -2.2283173220635373 1.9131390373899655 1.6306158319593511 
N 2.112896189850989 1.9536308462408665 3.89001494691768 -1.5945242149458483 1.2138799628765191 4.657062237806023 
N 0.09473779097499192 0.34402800944114137 0.43558198026825856 0.1543557217919429 -3.5305478788016895 -0.1804575708466879 
N 4.067954291446494 2.1542747013409014 0.8227391190952374 5.083633865710656 0.7175475952493906 -3.387561836551215 
N 2.6011847776244443 5.83551564117225 2.3951545202849744 2.6646570887515417 -3.0891072986444463 -0.7528588821616209 
N 4.347196801581641 6.758248865103236 0.589168780308543 -2.855180789349435 5.144204965077412 -3.0392029389519832 
N 4.311683417564698 4.490844106128759 0.11599794886180402 3.637533064014196 1.0079242382231215 4.522545926756902 
N 6.608212362757617 2.548644683243955 0.46388103448479884 1.3733069304402883 0.6994583350829638 0.9651125263638363 
N 0.5629927684320285 6.655218869190224 3.318961902542759 2.345818066027916 -1.0190038972195372 -5.280605381227727 
N 0.5456099875919861 3.6555094585288312 2.426342279870331 4.890355227045175 2.288330748946056 1.7428051890268332 
N 5.866573312378929 2.82166302198098 2.76981722786155 -5.674242450871253 -0.7590696412806754 -1.1584587850677475 
N 0.0795650258481485 5.797839816620597 5.874781517392432 1.0251071841862585 1.8940133651516347 -1.8025882449799486 
N 3.6050872029532206 3.532063020785004 2.6819718908700025 -4.919262664918728 -3.0955468860304305 1.5227659844303436 
N 0.6463340740726597 0.4579631282981935 5.426450876013725 1.0695019248539566 2.1659335942902023 -2.1115966510900184 
N 5.489486500785959 0.841590040208932 6.311659177912324 2.0469431525970685 -0.8874039895769172 3.023711522391242 
N 5.694293927365855 0.09773651394406185 3.97512694123266 2.4930795973242077 -0.6202428741696672 -0.39665091789628165 
N 6.712361862089424 2.3384062526947913 4.7904941377487535 3.8447038924760326 -0.35423669873438246 -0.686675319605188 
N 6.202190922297993 4.022988314153723 6.320752727263001 0.44922716899316645 -0.9189578649240762 0.529045039602437 
N 5.024170777324882 6.095508044711702 5.813661536916502 -0.2261962276393776 -3.09652750514287 -0.28649016198169464 
N 1.1945733336382702 2.7791531132776504 6.318904728923608 -1.1981705166861634 -0.6748641814858334 1.108836989718381 
N 3.7627528311866847 0.5287817549261941 2.5380540024952345 2.138303995165685 3.3964254609041826 0.21729712204951518 
N 2.4242118039086664 5.8572404004114835 6.557446673862296 -0.27720024856516545 -0.2902239193888362 -1.6865391464033068 
N 4.240213605681143 2.3791008709939394 5.03184078813174 0.9657887267481348 0.894199160663086 -0.7936749030007827 
N 0.32786285582552543 1.5083844144800749 2.667831655788781 -4.90835295590483 -2.2603026286825036 -0.9195641312762343 
N 5.054656803027541 5.5466674051555165 2.4872548623025392 -1.38492497864002 1.4094769661295363 -0.29429629120895145 
N 6.688311866001591 4.733739923261259 4.012418447545591 -4.0744065919180965 1.7552297925898896 -1.4436867920355556 
N 6.977864809349678 5.32895744149725 0.8637058079463639 -0.17540483702454596 1.4849447856734284 2.8500401237662927 