64
Lattice="7.28824659407746 0.0 0.0 0.0 7.28824659407746 0.0 0.0 0.0 7.28824659407746" Properties=species:S:1:pos:R:3:forces:R:3 energy=-17180.0150403 pbc="T T T"
B 2.549364522038268 1.8843943775152125 3.9951376430287104 -1.4838260982695946 -0.13270188286965542 -0.2739277472376556 
B 2.0915627869518643 2.3815132876780263 1.1442408676016325 -0.8551664576435036 -0.9117860270839161 2.553102794402393 
B 1.9763858972009987 6.164854484682845 1.411007455912034 3.110126589069225 -0.42198503525995623 0.4760219306090082 
B 5.84831427390751 2.139065391778083 2.74879135594269 -0.21564184521525148 1.9432700637155624 -1.8917063134222394 
B 3.585229891610628 3.3470813323765305 2.888999728620915 0.6530617327452476 2.0877051802496513 -0.8261381778761787 
B 2.49728271187699 6.221497279562697 3.904919353739263 1.969522579471904 -0.1755984411649934 0.6430046018584725 
B 0.07345313564909087 7.21480511962292 1.8444044972781688 -3.7593442640404624 1.1622069406579767 -2.597204686310503 
B 0.9878103156543104 0.6294829430318326 3.6480378142844088 -3.3048792417283117 1.7671121502934461 -0.6436008409045517 
B 0.8940040225665987 4.034282815485501 0.8905909366865923 0.5029272497021305 1.1552184225417728 1.3344781159776444 
B 4.751822353866976 4.149994662536371 4.6462353389845985 1.9422701613222024 -2.9111562972070835 -1.1900746240242661 
B 6.837245521887991 4.648155063137478 6.169523335451012 -1.2075604460530698 -0.2248463979749035 -2.2263290872453703 
B 6.076737396886471 3.973819521741034 0.6874347069999801 -0.1371948873242621 -0.8497691958689054 0.31657927931009 
B 1.3069123451074631 6.009969041013468 6.8317800657670915 -2.0489301018631747 1.1795711494617716 1.4331470649049298 
B 5.9689726539217824 5.312377433559981 2.3497416343004645 -4.065900865259023 -2.2836127728807036 0.39732891805346604 
B 3.2582507252385957 4.643647282619042 6.8398620024152645 -1.279859122655189 2.2630220855131973 -0.30681139763713083 
B 4.0530449486926345 0.8646506094089518 0.6238083142336839 1.316598657907639 0.46708065891153167 -0.13551132834464755 
B 4.8076736451667115 6.137644544848516 5.430053463067956 -1.1109730630236099 2.0861640604384406 -2.1087003022956754 
B 5.539882966292747 6.400128559460239 0.12231864258840201 -0.3467149336231082 0.6435933847025956 2.0866376578178616 
B 0.08946249811764141 2.996302396751539 4.151104662492649 -2.925297369882527 0.31345358802799256 1.780462865561538 
B 7.017612862124241 0.8610232490790795 5.809465733087101 -0.510461099002782 -4.278397735911256 1.172357659734822 
B 0.9812195542592862 5.40381286003064 4.906693949867826 -0.6617968018920749 -0.9092671163748013 -0.2041014443600286 
B 4.1563820818514206 3.385111403104427 1.0646954866245522 0.12238198514152941 0.02901182470093888 0.6500229447825011 
B 5.066454501683982 2.655133743085498 6.388995033963125 2.5751669815426808 -1.2730256421175903 -1.0785131305835733 
B 1.3415825341554897 4.325365180907723 3.0878384010251954 0.37189452762900205 -1.3950630993066635 -0.4338401392598108 
B 6.696873163661399 6.310504991092868 4.07367505950183 -3.138216415831725 -0.3069615501179028 1.785226350169864 
B 0.11129516961485986 2.2197134844648474 0.9107801085768462 -0.7676522439530202 -2.2689538798349274 -1.509459492153164 
B 2.8494996185549932 0.6894513648325614 5.847583262774125 0.2377443418069689 -3.308245588356304 0.6012177321025385 
B 4.724258934072835 1.6192027792937913 4.286209804905701 3.5403808094089557 -1.0260366383266535 2.970028153859076 
B 2.2794049528950007 3.9963125083796753 4.803211780601817 1.167614486849066 1.9331026324619187 2.3588239962331397 
B 1.7204569315759906 2.2977458254489966 6.4839346493962156 1.2840171122425936 0.21506874610627763 -0.25177177168018383 
B 1.8072716097060035 0.543995454606601 0.20897953871528005 -2.5512220317365593 0.042211101936197384 1.0309083664185497 
B 4.8101749713977995 0.1441841111952938 2.995037885967467 -1.609314234301888 -2.3344255036597548 -2.1676060975220888 
N 5.720393156162242 7.124908242008272 1.6951156981683833 3.5143152129223423 -2.3470629946441797 2.408793919080734 
N 3.166442140542321 0.4205485914454358 3.7898568894599243 -2.814792600236308 0.2771848219404286 1.50026599514124 
N 4.665136677701678 5.036635369568974 1.2352703387370005 6.057559108565829 -0.9208926207764891 -1.0488346185835904 
N 3.531353715137888 6.533710458335128 7.213904292343892 3.052315827088716 2.8033157056529183 1.706919003232743 
N 6.471197709648407 0.6327517216292763 4.148255686899025 4.21903968346964 -5.092668982708615 1.9418569848896674 
N 0.09297616180064615 0.7190649683936169 0.2471830697121153 5.6416943295598045 2.9127706934857946 0.17033179147983385 
N 5.5898052689882 2.260031335798624 1.1120319194284258 1.3777449132666666 4.996722575936971 2.715712274649374 
N 0.004703105527158185 5.6339764162962656 0.6372857398354519 2.7893978048153354 -2.9292188178906335 -3.1201227847882893 
N 3.1967794669901686 4.928109004835204 3.1142480913834945 -3.9364365167008075 0.9624349785303442 2.2247671414907644 
N 1.143490907027102 1.9766315111112194 5.001759651966994 0.13222417172363776 2.29806983425284 -1.8233059448911217 
N 2.517650445808799 4.555718960409453 1.1537666059000917 -3.6977712053970486 0.368355402803957 -2.4207320697437553 
N 1.5666501484025364 4.019732559985084 6.347242855699634 3.6876410551531857 1.8297902694888428 -1.0312737203144007 
N 4.44495729044528 0.47571770286396453 5.452758537682485 -0.815232325518465 2.0553442353183433 1.8553133630055438 
N 5.034186518713364 4.482474997437612 6.395528218210057 -1.3732020293920775 -2.716624502392146 -2.4541296838573796 
N 1.3489021202099216 7.095703509081144 5.406831651769907 0.2756814973598229 -2.758225481320001 0.7751953492285139 
N 3.1896581212430952 5.5942408958653544 5.414828315932929 1.208948070948149 -2.0589818334312917 -1.3664906763003124 
N 5.133139771545813 3.7494100361614326 2.9856819638146495 -2.3296818165531743 -4.8227814684895405 3.0866166700806823 
N 6.778501525515067 4.543801948403477 4.448003777521604 5.064911856819607 1.0457539216236422 5.17353792068329 
N 3.5634569837354806 2.94838217539548 4.943753954974051 -1.5065741991065489 1.1326986357509237 -5.222201465526085 
N 7.086136956601758 2.9794556147493294 6.566423753172644 -3.181779918536519 3.245455369021153 3.5353720414673133 
N 0.18041835796240932 1.689745718077867 2.5038260996691526 -3.5808348187876264 -1.7672607601117445 0.8561118526294601 
N 5.358246013499808 1.0139357643954403 6.797751971244003 -5.588758638106551 1.399112074079261 -3.8578175519440023 
N 3.3275393567838307 2.5264254947080684 7.043016774452557 1.1685133448503997 0.5638433912421672 3.956847741000542 
N 3.5763812314207586 6.537904844250019 1.9632495615398335 -3.531579919996584 -0.7543035855682265 -2.5161740258865044 
N 5.8862357497611555 2.631487027011014 4.902341409001843 -2.9347898863039332 -0.8872260691716188 -1.3075339732122675 
N 1.90980922221342 2.843644241241311 2.7831816763215045 5.460419661822888 1.467976784014958 0.6573955858546524 
N 7.12468886578579 3.964035050688485 2.290123048336251 2.2811260009731242 3.5663785287467267 -2.0397684865423735 
N 4.949720842460621 5.875234141527396 3.7222168592942704 3.941944078842274 3.1849873709297216 0.9047255180522734 
N 6.513742849141334 6.413863988991437 5.923848203959211 -4.671961014866458 -2.4085920874070936 0.27251389708052365 
N 3.8288125675052687 1.6936471164796765 2.1262482813177384 0.4362857735014256 -0.6410788448704895 -3.437063304227634 
N 0.9618882089931551 6.054030864622622 2.8286494026986566 2.198041285465414 3.1319948580753545 -0.1293283371501193 
N 2.0775015727979103 0.7172429067450975 1.829301063861262 0.6418355208138319 0.5867699267052444 -5.711551485686905 