64
Lattice="7.749680688369477 0.0 0.0 0.0 7.749680688369477 0.0 0.0 0.0 7.749680688369477" Properties=species:S:1:pos:R:3:forces:R:3 energy=-17156.7495993 pbc="T T T"
B 2.7078081796424907 3.1111550354619877 6.006235023906996 2.5262524969374986 -0.5904730879733245 0.21549426383860235 
B 4.399279060632284 3.4374026430171036 1.36593469412187 2.533693786489729 0.8547959615394071 0.7274165213143761 
B 1.7674045772786442 4.139200551698673 1.6119452077018837 1.251073555117057 -0.7823021381343669 1.964790976554701 
B 1.243966344607967 1.3773925970196241 5.745602412804167 0.27389123755911177 -0.6303205738894248 0.6573958429650648 
B 7.393052782579814 3.818141355364421 0.8385712481825337 -0.1686253496735263 1.0648955347075342 2.4950390357761996 
B 4.516094647456491 3.5143530974122683 3.9241515624048335 -1.3012355394426254 -0.039980926220073876 1.4509362772202246 
B 2.249284372289871 5.406177248206547 5.921279924328814 -0.1726642971400451 0.5637261488941671 0.20055769154756256 
B 6.98873179189779 0.4314278237938041 1.9721395165443332 -0.6083543458162161 0.9983126796808292 -0.33342566774355137 
B 6.823341981486952 2.731674096290393 4.518710939656883 0.17293143485840481 -0.7503654253833218 0.651947673328835 
B 5.554178325088821 1.5450538388402224 5.534080303191604 0.8512810050931165 -0.04041338593353015 -0.4727167762591387 
B 1.03170724036194 6.7916310630782135 3.145687612609362 -0.3776543150849161 -1.5791256152439401 2.29190921166418 
B 2.217292140472144 0.3132978911248505 1.0353526901577492 -1.796288782768657 -0.9454320098558038 -0.8798770822573972 
B 5.705898473733443 5.530586747137287 3.1571307911138082 1.1020027378495456 0.469856422922515 -2.3087759118202116 
B 3.5978001091284932 0.05920601052300513 5.651152404446595 -1.2159224479916777 0.5041942898138503 1.1595905851026076 
B 2.7177455951891867 2.1456781161989906 0.6249830736984514 -1.6515384488691118 -0.19892786864411469 -0.757395338275903 
B 7.683204702392712 0.8121680860772588 3.9174504135136 -1.9623797951083317 -0.4419681707232432 -0.3336238998714199 
B 4.904296302306707 2.1208845627726904 7.498953719122522 0.5324656365274205 -0.502074157354183 -1.1131495026635665 
B 5.30528725519694 0.05703300005798633 7.078638937435839 -0.47531847652100795 1.6557527456368062 1.5406968645828052 
B 0.4964259456632966 6.5969730336116115 5.848119838758331 -1.370088165188945 0.9434638296497944 -0.7316835257165879 
B 7.214079331858403 0.7799456887430875 7.618128308748267 0.9416404026058991 1.9345416794394543 0.1547987230323027 
B 3.631509670186763 5.979177788751622 1.1566127188567352 -1.9768173160891345 -0.028107310270535084 0.6225792364860626 
B 0.04417550482791253 4.524111692128608 3.460798154047222 2.276648937364079 0.7812502994377262 -0.6202757843024392 
B 5.800316708400192 1.3213275320796154 3.300698275674266 -0.49425902926249626 0.6692406625484281 -0.14676247998605457 
B 6.4124027634970595 4.331067921149394 6.346247614300793 -1.2946841090272987 -1.387084448992766 0.37693723414506497 
B 5.712715092866932 6.321570306084818 0.7727927334677224 -0.5954612870819841 -0.5596591763927097 0.15532117139005724 
B 3.2827786890185493 6.038619389567554 3.783320490095439 -0.44931484364375424 -0.013836139726478002 -0.8427446822949822 
B 4.325378105587993 5.230280420718418 7.010555667684306 -1.828876499083597 -1.2461108099392133 -0.3016514487730678 
B 5.742855151000139 6.34463723065375 5.544238584637918 -1.3484821488033418 1.6606722962653866 -1.1034924355783005 
B 4.275992490433289 0.473895298998 1.0133366222901603 -1.0899779409775858 1.5682503590252876 1.561205533728794 
B 0.1623844842398875 6.740383974622163 0.9310629122301545 0.13313537102476086 -1.8660040139481786 0.5748811412413811 
B 0.7160232225531405 3.5031121855737886 6.57585825360808 -1.667845162547196 -1.226942971593269 0.25635039390208 
B 2.473718224897327 1.1462963439243776 3.5154496772296726 1.5570195191064506 0.640103110855884 -1.5840094275252135 
N 2.513860795895012 2.8330228703967517 2.485242775049001 -1.3666693680368476 0.05961696262678177 -4.400174226031864 
N 4.620752535216782 3.369498390889473 6.08420533628075 -0.6156580812978762 -1.9608492168240241 2.2654486935843035 
N 1.6923644191731626 5.0846825198176075 3.2403383376967625 -0.6444030253908677 0.7794268723938309 -1.4136015313633445 
N 1.3236485614457818 0.03230609388560584 7.235776112881632 -1.747402580308826 0.3936686942242369 1.880181853412578 
N 4.042452763017001 4.831752316350949 2.5002190329792753 2.9426047572852077 2.11778221338867 -0.47439133637432346 
N 1.053713233644634 2.60470177795601 4.346024029909878 -2.6242015367103977 -4.325681112060929 2.976134269040332 
N 2.7354319164561836 3.8248161553413134 4.413962380632538 1.9289158465083387 -1.3729269212509372 2.4505584202307995 
N 7.218758589058041 0.4643740413042693 5.7215683280853264 3.2207262324575754 1.025929937505557 0.44339539062181377 
N 2.8666402102548294 4.0508084687352 7.714886172014835 0.8910490438918218 -0.6512131088809489 0.5326132179040697 
N 3.339352907979784 7.48176337741958 2.810799886054783 -1.5199917630818338 -1.3734719953249725 1.1271321953250446 
N 1.997977726927426 7.285552311943029 4.816190957528703 0.1991605535672288 0.13537454560531417 0.03358247650005434 
N 3.8544307851238484 1.806864401407684 4.412924698388365 -0.5781531283480664 1.315640150290656 -1.7713531865440177 
N 3.172380612772382 6.7687524557500085 7.143144179613552 1.5559270569646697 -1.7683488513765167 -2.0572820764957034 
N 4.047486180624096 5.493131765402328 5.221200894823925 -2.329096119033999 0.8234071510769324 0.27533259853035785 
N 0.18131540422543646 2.8828323930851085 2.4733454652562163 -0.6790285988335452 5.4047151483397835 -0.06287686554408979 
N 7.267594751851939 6.569231501651455 4.036249918594029 3.552386837220819 2.26797120383919 -0.6378667644898657 
N 6.046979745094166 4.525705801446206 4.5534194345558845 -0.27189040433074274 -1.2943714627659653 -1.8559713085505702 
N 5.897416332585117 3.2747019718051305 2.5144520965315342 -2.061746541694547 -1.616983066568987 2.0525013654897544 
N 5.456430052630279 7.085850790284435 2.422468036569002 2.561149836085957 -2.0033395406679584 -3.2939016555655716 
N 7.2261021864783395 5.297258586003789 1.8832173554217753 -0.2928816697205826 -1.027466429329347 0.03791555827822236 
N 5.047287985592019 7.548578024442426 4.48528424194374 -0.8386635687208494 -0.15090735694243304 4.88763114222706 
N 1.088072217944589 0.9995476154413443 2.2637592258796078 0.5047208519382014 -4.292304838111523 1.3721378493956475 
N 6.9696567278514365 2.6451380618517844 6.574337766257021 0.8762857640186594 6.012205603170735 -3.9506565222728205 
N 0.5731338350529154 4.788990353280595 5.279056910971016 1.9741068581228702 1.1945768844537148 3.097079778308449 
N 3.058061973065968 1.434736359273214 6.588680100306987 -1.7046500038443653 2.587116959284667 -2.943748898619857 
N 6.875090474283539 6.067493924844349 7.033373052535072 -1.3363948741011977 -1.8159788123619438 -2.3215890092162246 
N 6.33694799747475 1.8268857014660864 0.9753135889607442 1.5202311328756675 -3.745889676165809 -2.29277721641604 
N 4.366942742991994 1.671178342107298 2.3135989723226498 3.7013784644813477 -1.321377826251114 -0.27168805843627775 
N 0.9568910480283522 2.19671906314873 0.2679583842575449 1.9539733130683992 2.0321947851278184 -1.7293264327734257 
N 5.58738105703007 4.282498347371175 0.4313797757735362 -0.8519160678114499 0.7272679114960778 -0.416800146685902 
N 1.9693790802831361 6.222969568750556 1.4249864859991765 0.6818182468067917 2.558852040331404 0.13924302886849083 
N 0.9762110019844573 5.1581936659232746 7.658487095837158 -0.9079355415495991 -2.1945636100289043 0.7948529829098533 