64
Lattice="8.163263400743418 0.0 0.0 0.0 8.163263400743418 0.0 0.0 0.0 8.163263400743418" Properties=species:S:1:pos:R:3:forces:R:3 energy=-17276.30439 pbc="T T T"
B 5.9052435196222826 3.8852423584556437 0.32609298511145685 0.9758895664049975 -3.0765330568214426 1.297237472531659 
B 5.446175871670756 6.583044177744049 7.973552424615501 1.6575849144347188 1.2333270231302007 1.3716969050385859 
B 2.3332141492844025 3.9049999048644635 2.9733870610867825 1.6516425785860853 1.298512740176572 1.964339747781148 
B 1.41860048521243 6.63245886008777 7.4008603133890265 -3.0556148107886902 -0.572686960982977 0.3106174030701232 
B 0.8983720352098535 7.852252044764834 1.0912087248939148 -0.806888578419129 -1.4452495091213984 -1.9752687400759672 
B 6.130121834480602 7.80235246457511 1.9982738192992202 0.44744616516729746 -1.3444532286429018 0.5040335958061748 
B 0.016300404358604456 1.5774159583475533 8.042411184053451 -2.210979081411383 -0.5096452876646151 -3.5441060821724917 
B 7.676721473490349 3.6836954667229893 2.509784720316143 -3.0976994144020455 0.9955734253483896 0.27767384594458666 
B 7.945389982209276 7.865851225264132 4.287061040177758 -5.4777741004310165 0.5869933556535165 2.339073031472142 
B 4.653255240419026 4.328611234561201 4.3569540850885815 0.1526099420925564 -0.35591845794111104 -0.2970252611248997 
B 6.47071440804446 5.924219841723651 3.294863720745119 1.3314431846710821 1.1805327424037018 -0.3423250304438261 
B 0.6146676116330969 6.107641023401295 2.88946708067446 0.7250343933445946 -0.19237001046848107 1.7636067069324102 
B 6.050996954989877 2.5308892051860847 4.664484625553088 1.8718717877772508 1.544457361472824 -2.62971989748918 
B 5.028448622233274 1.0528626113952628 0.18422852842797746 -1.6831918259458236 0.6571886119727665 -1.3093687131143033 
B 2.1180174648193653 5.638575010436538 1.0914381125954757 0.4790653465591758 0.4927325647447853 -0.16325894114840184 
B 2.8700809627503743 0.5932594533646474 6.647119264829164 3.0179203674650297 2.783834706824816 3.3670611378280064 
B 1.0002030318497472 0.8671548996390707 5.95539289567207 -1.4090972140505977 1.7669715108979285 0.9210227186451031 
B 6.149094074950271 4.451590797693401 6.584020504046777 1.0578733351273213 -1.4063435615350706 -1.8388804081150298 
B 2.1138068535572616 0.7653067601460355 3.8059460504335023 2.4677290248941475 2.0266311729164745 0.6610169860116273 
B 0.7115239155565775 2.5879651102314027 4.092099453030482 -4.000032005847221 0.9835697115302366 0.49057206595038994 
B 6.218535691395034 0.4946455988309867 6.358785454577846 1.728261738556171 -0.2786377528802273 -0.604033091117013 
B 0.6462284205930512 3.4192261406974045 6.43371033504889 -1.6525008131422787 -0.15797737905933 -0.5525140780354268 
B 7.373803176847263 5.75302314698862 0.8638895942787733 -0.5923438233330796 -0.7817696624705335 -1.0540177073847588 
B 3.6707322044426087 4.8483286642748915 7.362538689680577 -0.8578545470038993 -4.140390122573774 -3.199633922675709 
B 1.462073944453089 1.9295375088122806 1.9248958772426177 0.6997738095588324 -0.01849806572195314 0.18043520224081946 
B 1.074365463519161 4.663015238140955 7.2558987145713045 -1.977427953318301 1.0448776893385894 0.39681726833302733 
B 0.6191002636597006 5.19805103162614 4.685972783802865 -0.27005077933087374 -1.5979743795682442 -0.9607061681181681 
B 1.9961121871507035 7.335137879749642 5.028378418168028 2.1893380980097095 -1.621324375880348 0.020731583873436293 
B 4.035464364208805 1.202774413139195 2.311596195146554 0.8204724928311595 -2.2045891163349687 -0.41341785921234825 
B 4.494477318295546 0.3906292965787141 4.715760531952178 0.6670608804731116 2.9023826614984145 -0.07967028923262134 
B 3.0885298913542685 3.0053527679114134 5.367974257270654 1.091612648978867 0.1084296315087005 3.667187407635425 
B 4.163736171003706 5.397927719667002 2.3600508777143467 1.0691897928134477 0.005522731655791197 0.28589803670221203 
N 1.020801394388843 3.117237639755663 2.7221405891177217 1.4121090054200545 -0.5748474597773723 -2.2844329550958795 
N 0.6957737151511831 3.780911770562443 5.003569444366828 0.8394739807403584 -0.29160485941319625 -1.3658491858216717 
N 7.659301885719502 5.155941653699745 2.9071095255361468 1.489901874422202 1.6915402010325804 4.402276360762672 
N 0.8436202112547274 6.661871098120648 4.302587567165971 1.4411329143103706 -0.29417776330889 0.8706918127786665 
N 2.281128447155959 5.400603637409766 7.782350020264269 2.058063692149037 2.1364718263677718 1.998816454295115 
N 6.875392680935853 2.8232793410212325 3.4543934794278073 0.33566175699915735 -2.0674826749925312 0.9110548050713896 
N 5.638313786007714 3.798941970435665 5.353343240277502 -0.18565840026630354 0.9064910952534055 0.6903509700591539 
N 0.7011712649117547 2.0200525897260637 6.826809018806329 0.24002491116389946 -1.1589020434185195 -0.08582962626921976 
N 6.273457311228896 6.692965784740419 1.0229279245047367 -1.0547599851450133 0.8760258253918435 1.96931920513579 
N 0.7705785956502357 1.0493540407856232 4.441794881612509 0.7095095524302565 -0.25850626470905436 -1.880678333618692 
N 6.786486579238357 7.399937048298403 3.29684821007784 -0.10971441223886756 0.544758342448977 -1.5984847437366216 
N 5.474598722179465 8.00441119292299 7.4794268256631415 -1.584384294506319 -3.0453051974770555 -0.9693214238128726 
N 3.717284030311688 0.7878683875330101 7.759291250136188 -3.473630832614268 -1.108476006699539 -0.4721102527965683 
N 5.561201967271611 1.2308780800489343 5.212371028283724 -3.4372916182737394 -0.4938337686405839 -1.9501238559757312 
N 7.596384349384613 4.3684863272948125 6.908294714072549 0.5211057271816187 0.42096636380649977 -0.05940253254293958 
N 5.117819213618273 0.616643937702417 1.6048167682784884 -1.4691934304858707 0.9585099309764658 3.8455490144012 
N 3.138489879693158 8.154336872214705 4.494914869213826 0.3205174394949948 -6.532488577033056 -1.5841030157152838 
N 5.148407777907199 5.078495957490553 7.626194138345107 0.4854059464364321 1.7905935300262252 -0.3711093124298965 
N 6.928875117432163 1.2155515530140388 7.426189287068853 2.6050992615195847 2.1148786655027827 2.113578715258291 
N 7.1152620127032975 7.9235589668966675 5.5190215689536295 3.2146108613014768 -1.4533106918776377 0.19642258478685076 
N 0.19081546566603733 6.32083444302779 8.10882259712386 -0.22273140772348177 2.317259269873416 -3.5836221527671626 
N 2.888467897234209 4.90783722181363 2.0397203402374746 1.0084232895333585 -0.9608002705290629 0.7037657058199038 
N 2.9144213605641927 1.6232404374476264 5.643686845978083 -2.405378207253584 1.6456801881252943 0.08184929997670098 
N 1.7283791884175013 7.7424839071203975 6.492468688681101 0.8760613066287383 0.5833015072435768 -2.4552879662647045 
N 3.452875112435269 3.7128187252314815 6.542053166903556 -0.4276147248472562 2.5197761427625585 0.44998795870310526 
N 1.2034731884862986 6.59512907288251 1.671188997684573 3.240330644283572 1.1698266648363298 4.299888052611332 
N 7.050740395110162 4.333736131324188 1.190717273096297 -1.6774698337205147 -2.8157611351593697 -3.069755883464133 
N 5.56580441517695 2.4603145277812977 0.06254529152381591 0.30033324368930425 2.2326478327375825 0.17951217586073145 
N 0.742416969570351 1.100247090131218 1.0047426226269005 0.041995129189881526 -0.8786478373762829 1.7588591631696453 
N 3.326549427635104 3.6961077087238197 4.118489650952405 -0.19333494584577085 0.44575026488789343 -1.9943095658782453 
N 2.6341365280260076 1.3409898910825422 2.5854312332718115 0.48503725010522153 -0.302319164513761 -0.6982568581263757 
N 5.147290227147637 5.336090183080031 3.396536350075038 -2.3940008143997473 -0.025191421084858737 -0.9043190264904576 