64
Lattice="8.247734377469541 0.0 0.0 0.0 8.247734377469541 0.0 0.0 0.0 8.247734377469541" Properties=species:S:1:pos:R:3:forces:R:3 energy=-17145.7813216 pbc="T T T"
B 4.284577592173515 3.1323666253207074 2.851723441978865 0.31405162684695764 1.5304512717638283 1.5255558895140022 
B 7.680013953197991 4.536569795834905 3.446795002992979 -1.8670779641402755 1.0984633559140884 -1.4493097967521364 
B 7.9901757778767974 5.241600976342881 0.7254237037562693 -0.014972310638346777 0.09043215975945804 2.1830617757355233 
B 3.2623319493205596 7.676309070915632 1.0583311303012612 -1.29427504636136 1.9320662203900152 0.23063883845317723 
B 1.8057705114313098 6.040680247183704 1.6115611100450344 -1.3684110339696374 2.248901581670737 -0.6265433648226078 
B 2.420446937060669 4.477266111340586 0.45266040583866085 0.8213230140749843 0.27262702566192715 2.2545922064257473 
B 4.15369841920464 5.7940969077270585 7.49972507789401 1.5308035130286533 -0.9584898763643079 -2.4521265366353 
B 3.962340259592656 1.976397990685524 8.158039441341122 -1.3555388011788 -0.7231963110071993 2.2197069514666663 
B 7.249749445287912 2.3690610775687206 1.7101957654651927 2.589009549029466 -0.6873733743745303 0.04118034629336373 
B 0.69216224055881 0.8194437517922334 4.851751191655839 2.459897955956899 1.9893095396906209 0.07339422406884746 
B 3.943906573259012 0.13950465358083305 6.106474073859654 0.22535341970792117 -1.6762537014704266 0.2840746096583167 
B 2.6205031573471325 6.036375754612102 5.095324932838145 1.624451609824919 1.3107049159269266 -0.025439789743121975 
B 1.769176963545353 4.249438944631745 3.496756478757938 -0.05141334070213885 -0.621696833551115 -0.42494283344283434 
B 6.1838551425625115 7.233178922150138 6.246235231979626 -0.4356298848396974 -0.012124555711924835 -2.7263862134152106 
B 7.167256430817899 2.9661236416615555 5.287761071333264 3.036545188620237 -0.7191733043862419 -0.4737117935546653 
B 5.392558433880268 1.9341687658994424 4.298736477779317 0.6907829155517857 -0.8745368989943255 1.0332023055169188 
B 6.55682263975231 1.4085208594608027 7.362850626806152 0.9076601762980464 1.2511265198619868 -0.526280588449594 
B 0.6371119126829519 3.1318362960002366 7.793631442888261 -0.8396904677074989 -4.150862229665971 -0.8423824137240786 
B 7.378792672584362 7.736973631582234 0.050590777897960425 0.9422764937658817 1.245974798531117 2.5311566209413425 
B 0.20026158887246245 6.267587791509457 4.999415328856303 -1.2918885475145696 -1.6540234210038058 -0.6148759514237182 
B 1.645284446367632 0.45342579558889 7.291114307511235 0.7841078245598148 -1.157992129669458 -0.7708820649520914 
B 5.407759833111382 6.849097602886698 1.8058736081110283 1.0548425175873555 -0.9308991009120449 0.012616922151442535 
B 7.456279312287251 7.785451339932687 3.426929509971406 0.4737709289494899 1.3422191962705943 -2.8199036981220376 
B 5.097987301495192 0.9440200061498465 2.1176519887278182 1.5633431496964967 0.47081287365619956 -0.9741188469956197 
B 5.6610922936091095 4.283250531712181 1.0933889500461331 -1.8076170675337482 -1.8540771761432977 -1.792999569264349 
B 3.317670947899629 1.0788382970574015 3.749128078200691 -0.6552209459875816 -1.8691554162715043 -0.20867800969862652 
B 5.26614623385023 3.9878241092721614 5.908318131573759 -1.3765863737489294 -1.8817972781329382 -0.45407858536249257 
B 7.19693342865491 5.04475394950269 6.61804804635658 -2.011480941872829 -0.9987405114068643 1.502927087908346 
B 4.741286810818076 5.716911310328948 3.7461613681451156 1.0731068699445454 -1.400554206381744 0.11712253454791373 
B 1.5468279420100273 1.9246261372247102 1.9587131986333541 1.5707810968133673 -0.9426048237623644 0.1802179439424422 
B 2.8879359445365824 2.546014569090454 5.681677813841836 -1.1388523163584519 1.765478470733814 -0.7240730575130768 
B 1.0028378990893327 5.887528067528472 7.215559287199549 0.8247112150880205 0.23225657716724793 0.5087348596947289 
N 4.929036586639917 1.9441608960977468 6.07161832360703 -1.3313200287835996 -0.2617024042441167 -3.0802930394906363 
N 6.642044004754389 0.3569759650053234 5.187565944568889 -1.0511581253793718 -3.124054260102475 -1.1781125620929027 
N 6.574060404601221 5.920447249749267 4.813411598402172 3.6950010978151355 1.1339548772253276 3.8414648155021194 
N 5.02694461666142 7.973834541754718 3.901390327316594 -0.7846485277568414 1.898713086377715 -2.0921894429502403 
N 5.438382021308051 2.3550118868301393 0.9828338441302181 -0.02327517718213007 -0.20199519586262443 3.3428940446256745 
N 3.6904347260503045 4.094138230171182 4.681214437479777 1.0131199254344916 -0.6226373434392382 0.6408417890703666 
N 0.8198173741595327 7.533679350779176 1.093660300507152 0.9577532550331234 -2.0573823495564927 0.6117500030312084 
N 4.384133519523637 6.392801595734449 5.768174278578672 -2.2408280576147077 0.8516818402258621 1.7398473908439553 
N 0.014268580473022307 1.3808587831322077 0.5230119305316006 -1.4281131001428842 3.5180798235789577 1.5301895333641267 
N 0.6192299997791602 4.1544844282908135 5.125895160308236 -2.741682226062619 2.284712948334853 -2.9007952618129926 
N 1.7527120114076107 2.3044376044009334 4.225085034561952 3.0880683154684196 -2.559182684321597 2.4118612462992437 
N 3.170801892293153 1.1531973958843535 1.434659579249879 0.7992937939507669 -2.2216972431681317 -1.0411120502403248 
N 7.419645350502845 2.0228269618166133 3.5002345483449173 -2.5684692553027664 1.279637750590215 -0.15109864708916995 
N 1.3499495737792027 6.146148150535596 3.49135998615476 2.1469076808918364 -3.597977398416035 1.2322818693042792 
N 2.271054074734688 2.0857802687729627 7.529804565168641 1.6708903782702493 -2.83725967939264 -3.154047732357502 
N 4.263176371010857 3.9945839523679356 7.778960372977618 0.134007232432805 3.8198564851228056 0.04730111676812002 
N 3.0735710012640403 7.399453247199923 3.0625041912763518 0.2895518327711342 1.553057447653204 -0.8819743318903717 
N 4.108351550823874 5.519764065957418 1.741152811677587 4.935909021451435 2.2499019982849213 1.1245847453601667 
N 0.15602981417953105 7.699179213570918 6.50128981941537 1.6300064802822456 -1.53494710443297 1.6123167696965028 
N 2.2609357542004083 4.497972873268661 6.591876335629993 -2.465232739901313 2.134313127346262 1.60426869957129 
N 6.070889223888061 6.018162282786336 8.049184193480404 0.8755098047943961 1.399550704442612 -2.051576796447193 
N 6.698488199740041 0.06487090519911119 1.7314501769559316 -4.442894920805203 -2.768780635075364 1.285875506302559 
N 2.7343375624515294 3.599505928859016 2.0990690184019423 0.035563255116265485 -1.0546450567907237 1.5729660210969294 
N 2.538426653463182 7.083725851363201 7.661526656590894 -0.1344738878310946 0.9751002374392954 3.0404710075053525 
N 6.852902282755025 3.568675072982597 7.760914330159714 2.061561165087292 2.234214149369197 -0.988193328074282 
N 4.929891876694861 8.238825999568435 7.871605523692858 -1.4967808635027742 2.6651473983077616 -2.7529804289094733 
N 2.3100633840198057 8.043856981845996 5.1930152226720825 1.4463070042471093 1.4969333299772567 1.596628149449542 
N 0.9258098334178314 0.28421445232728715 2.8802911195421057 -2.034059864058503 0.5033226855162185 -0.5940096416942467 
N 0.046353091974816574 2.001384501982068 6.369293078438347 -3.9221126385222327 1.3369273497650311 -1.7702550679731663 
N 5.793967418297333 4.040541153092634 3.36331968335861 -1.6775299975569886 1.2166868372473885 -2.005173252128345 
N 0.3508239799331689 3.645793038958813 1.6940590731556735 -3.1993377314807616 -0.49091916500696897 -0.09668559920695123 
N 7.364720388189524 6.012885382331631 2.2974121842582047 -0.2156968668434796 -2.8858846576735937 0.7115049863399676 