64
Lattice="7.363685044340403 0.0 0.0 0.0 7.363685044340403 0.0 0.0 0.0 7.363685044340403" Properties=species:S:1:pos:R:3:forces:R:3 energy=-17224.5779052 pbc="T T T"
B 5.682906260125599 4.338147888222642 1.57265558760324 -0.7624915237577203 -0.1948259291265871 2.6084648368163403 
B 2.6273370509230007 0.37797279874646184 5.371735339364385 0.4674100173496634 0.9339738843325106 -1.9241742162850566 
B 3.8139919503444384 3.0926446270323487 0.5260123228778814 -1.0014265438839616 1.0452618122945367 1.052542664949504 
B 2.4257451273066155 0.6272865560297037 1.2945328853210252 -4.718713715125182 -2.0757994254985777 1.1213932338125254 
B 5.719557529696795 6.536102573262117 1.8044916384337397 -1.8794709431226215 1.274947542449389 1.4848707378746915 
B 6.310474845292501 3.16141187255593 7.334436487344282 0.41951780374370984 -1.799480808537123 -1.2164796062550902 
B 2.7416045063355616 5.005274925816245 1.2367802398867676 -0.022570694652480724 -0.5393459111600543 0.7153739838239688 
B 6.948688373559502 0.6842056323169418 1.2005877278938348 0.35809798290601524 4.361371636831273 -3.044208107347853 
B 1.753734493791606 2.1098430389044123 7.0076965272938185 0.22539172915935102 4.590604595550099 -1.188676457602283 
B 4.357375942610423 0.887709904939342 2.422645015902948 -2.1612310448495866 0.02585322328606947 -2.018161698825533 
B 1.0821413812186103 6.908249960770002 6.827541027210013 2.274897501235622 -3.421931328023261 0.840151980897543 
B 4.026054297725371 2.572096158457368 5.302722146760322 -0.5761301836242412 0.4021618224731079 1.5872215079058374 
B 3.796135014111913 4.412176486710405 3.3986690683160736 1.8801438010715605 0.0547974279485785 -0.8680533457278411 
B 2.2746710285684233 6.438143471117257 3.141316376069925 0.3956936958313603 2.517020947584557 1.9130017404298072 
B 0.7765108970847575 6.324775858017115 5.061843490695372 -4.327391667633833 -0.5549802811100241 -0.5134196685168971 
B 0.671219037372743 4.64169003127792 3.0929487472246797 -0.09107570712139684 0.7027663176473684 2.081765672615553 
B 7.188319621377941 1.457455153295561 5.710822726497199 1.1008074315428522 2.6810895294212314 0.22172867711558675 
B 0.8511852907509091 4.609631492068879 6.952331188550937 0.7365280001047825 -2.626527614610302 1.582996155390415 
B 4.88736170993823 1.0021496705819406 7.341035085512516 2.3234800562985494 0.7633505296451505 0.5051497121058857 
B 6.030295465777402 2.2496043083089843 3.063614771482045 1.1840497557332905 1.4503667776570226 0.01937558355906745 
B 2.5408152243890094 4.491267618666152 5.147344710482217 -1.262195637331499 1.767325551935639 4.283758745117723 
B 4.535996114362484 4.789207470139695 6.312323130238631 3.152430507864256 2.397742542229669 -0.4869596646578449 
B 1.4185645871023815 2.742895360323834 4.406296584202499 3.6343868038991167 -3.4371633201780107 -0.4090225567144083 
B 6.605172466241022 3.914745570963626 4.95857148979102 -0.1770284892780991 2.0589154989449234 3.6681274033027234 
B 2.820701529239344 2.373177252512078 3.2770710644418717 -0.7425143018339159 -3.1898025347309167 -2.361596160698351 
B 0.19937766352355188 6.158408121810332 1.5416750918846909 2.099805053361997 -0.7187904669823558 1.402472507167771 
B 0.5900498734974832 0.8687653524257675 3.30597058276689 1.609974236730213 -1.8938912377058013 1.8428190825207593 
B 6.268824369944703 6.230587698983461 6.897926074337836 -1.318836804046543 1.2687933476210362 -5.594346418696649 
B 1.0744912488260452 2.860634793234802 1.7221280848442881 -0.3330474583270864 -1.037258993601885 -1.4849913226580511 
B 5.349697302763683 0.5850086947161277 5.1565750896852975 -0.9624810012941425 -1.6382784935765549 -1.3689643355768657 
B 3.394512268108543 6.545160642235161 7.167154917823497 1.3045872307771176 0.3186788429367749 -0.9248492929110781 
B 4.440596629139036 6.519074051597081 3.967078544205249 -1.3404394779967865 -3.8675671787776893 -1.1783007669146923 
N 4.627590047155017 6.532157847183864 6.1566732376138855 -0.2888877165762129 -2.2846684682335288 2.4300055280938984 
N 4.929029121761631 3.4144317725219886 2.739491128727836 -1.0538004490863815 1.185420154230747 -2.0040309105665814 
N 4.415978357298798 7.176211514059531 1.0323422520007453 2.252391341296624 5.264140801756502 -0.9181194278696286 
N 6.568214867371982 6.709998941058235 4.992976099055188 -0.07603526222379565 -2.771601650518909 2.1328473408858497 
N 0.6627721542583801 6.586018048703683 3.138842177895027 3.688954375139116 1.5327354406665308 -0.9046980072381594 
N 0.27331421594826055 2.7017713884567063 3.0692141175897616 2.377963295323321 -1.2490071587335563 0.8536075972138453 
N 6.084282322679984 2.1818863879042207 1.3224360970595441 1.2601081578941915 -3.0024626323682964 -0.599553456403845 
N 6.406799945726023 5.0662403470353485 2.987399158536113 -0.8308612961497768 0.4858990842071867 0.1340712529254629 
N 5.871945309846898 0.4261187806718727 3.1262797312093817 -3.311100799484682 1.1007033018258785 -3.9877305581716476 
N 4.124830032541649 5.8208906723289715 2.5425015082641638 -0.325731638656049 0.06995640074624113 6.058927450179987 
N 0.7662709566620978 4.683246251457151 4.810385428327218 -0.4740064420871391 0.4776517535124561 -2.5885187252524218 
N 1.8012170076945215 6.512444525951661 1.1095968809064336 -0.6574814607323543 -0.9848164399193862 -2.5400081611049328 
N 3.691409421779808 2.362471927194616 1.9002556260668824 3.2282863070202796 -1.1584533857490895 3.6092334351552755 
N 1.1604865718793658 1.036663262384764 4.899983066104229 -2.1502400889454076 0.8881755779241719 -2.4545526304855816 
N 4.346376806259692 4.759795439335591 0.5783408779084775 -1.0062368225873226 -4.697226740860466 -0.5877688006569552 
N 0.09557621366451183 4.471507169849664 1.129162192069246 1.2061882477827273 1.8644654652410908 0.0043091705098259065 
N 2.2071894824535834 3.371874827545232 0.6015269130075922 -0.6999383602226921 -2.100110500531787 0.44391706764833144 
N 4.806498875360815 2.4761517605406387 6.745853459907632 -2.631068441601593 -0.8871054843882593 2.3292480712876564 
N 3.9110806649170575 1.1001610548906158 4.561050316357348 1.1441595894887517 0.8963169791290427 5.00212215170528 
N 2.2599907860640265 4.3737520417805325 2.7333181515551654 0.5845454074181912 3.318956551021509 -1.1550921813293429 
N 6.529327983021324 0.5276787248034156 6.932130391368798 -0.33193982667098076 -0.9896814831405633 1.271341568917151 
N 4.413996789653366 4.057702679677442 4.870769854796323 -5.462779935407625 -1.2000710768537428 1.5150174479354377 
N 6.242329094786662 4.5916302276094845 6.463985587411866 -1.8309634643000803 -1.0014558544709615 0.08733269373941321 
N 2.8780440174166317 6.180902706883783 4.642305635347626 -0.6810250611849055 2.686833376031584 -3.611242238806425 
N 2.353360103320749 5.289079447478673 6.570304681187566 -1.27352726453195 -0.02893083492107043 1.2544823249630757 
N 6.0474668429323 2.291963906526552 4.733101344681352 3.0201186614900304 -0.4164286221401563 -0.49547644706464583 
N 5.770889041772388 5.523921354544272 4.3460734224358655 3.5901650985388835 3.003549438081007 -2.7898649744344493 
N 2.6145470663694854 0.6460440709431521 2.913550233963432 1.51936904166329 -0.3925158111355698 -5.170644657213894 
N 2.4656327364547983 2.8928965701510663 5.661766593100307 -0.11846310823754573 1.6253088159394633 -2.4406918081595244 
N 0.9803097171089314 1.3041594307794913 1.1535728079912344 1.1918222034965384 1.6193163435604352 1.47109733308881 
N 2.850765982538377 0.916149192949089 6.921434638841894 -2.305263783588456 -2.5434902074184516 -0.14589576078625605 
N 0.3197687594189864 2.8115779234694065 6.546704806988959 -1.0448776893385894 -1.9307816967702605 1.4473174481673727 