64
Lattice="7.789011258224153 0.0 0.0 0.0 7.789011258224153 0.0 0.0 0.0 7.789011258224153" Properties=species:S:1:pos:R:3:forces:R:3 energy=-17235.2417417 pbc="T T T"
B 4.369407097833884 1.9954114922645123 3.201339708011186 -0.8536181387407488 6.41820325588466 3.651750755592499 
B 1.9730803969871835 6.643433080607325 3.754085334148811 1.5656499443154799 0.9081880239744589 -1.4346868991640793 
B 6.808840523686974 5.660378854102351 5.133262190608788 2.33142862469421 -2.9477657345909196 -2.5968228773482664 
B 2.2581379576089162 4.951516517513888 6.4832255814436675 -0.08518376491357044 -2.0805785938420525 -0.3506829186158375 
B 0.45087704239694076 5.491394697052928 7.6537348262958185 -1.9299437739366374 3.4041773398344484 0.10178152757835632 
B 6.362825382117416 3.758311651657524 7.168369599849713 -0.12932730870847017 -2.401412279144153 -3.252943195558006 
B 5.636796843616953 5.6235438409610845 1.1165041352932539 2.6074009139303223 0.3127020542928958 0.21390660704276848 
B 2.904212295543709 6.614616075655274 0.9755596398723103 -3.285835330601087 3.2612864284365175 3.1409109329524276 
B 5.012012210154264 1.558866230582704 6.224170856006391 -2.593643964210827 2.7183201455611377 0.37901160095134634 
B 4.311192806591042 7.152193381268634 5.161734921263226 -3.8359022317324247 -4.7312038818433715 1.6969721727128366 
B 7.735605902532138 1.0500576380515954 6.132664772843648 1.8153568622746366 -1.655068574829727 -2.0033048307623007 
B 1.0579907460180966 5.113761622022698 2.0137016485010744 3.466463879871941 -1.191869254701986 2.851136442564258 
B 2.115881013790962 7.46370709753005 6.673072605148246 1.5075733301686722 2.198112762160028 -3.4956927057608453 
B 0.38040362633478025 2.5427679015125726 7.4436285843086 2.5961757304405557 -1.8911843792853094 2.630453176385005 
B 6.323796983405833 4.201617775111471 2.362729579685476 0.20913129535547753 3.785615034636076 1.284281164636006 
B 0.5153692767139109 3.347000449748984 4.853335251702847 -2.454941124318538 1.2415427292442207 3.743612449244238 
B 2.36508186108546 1.5159596831656503 4.439438876957703 -1.7082276952312525 -1.4868810841883149 -2.8567252515960053 
B 4.718729453643846 5.121838826697475 7.361655472024797 -2.412119899373998 1.5820245351424058 -2.1128539210060717 
B 1.1212032457853405 0.8087455013594269 2.0373358453619037 1.6201141571697424 1.7459920725870535 0.6984913428223758 
B 4.43584269045978 6.348261488866789 2.7211222391056404 0.5982226529098796 2.291541286664206 2.34664364756175 
B 0.5435374570281527 6.6541756849346685 5.189456791232371 -3.4321730641860535 0.7019484494259032 -0.013065065600047936 
B 3.9311638316977824 3.7249248338002716 0.99134251338485 -4.9081878910201455 1.2167865960873534 1.1085968485933109 
B 5.148093246945572 4.361046373149306 4.587776701864953 -1.3749094996400344 2.193596874878728 -0.13741086007057796 
B 2.1869837819627866 2.4135902653994283 6.350630127190414 0.9879503587346767 -0.8836051832354688 0.7033998377032282 
B 5.861417129182747 7.557868454630722 6.907993858103041 -0.023491149928445924 -4.917903836389824 -1.7959008031565253 
B 2.7220047340811973 4.195586743694228 4.189390585238311 -2.8818919900812854 -2.648245988246072 -1.3463399048482183 
B 6.8159129459094405 7.747906309111126 3.1501090442624684 -0.7251408370552789 -1.3688483787809271 -3.143633475108069 
B 0.11225445135240067 7.529864622454028 0.8648894734098325 1.4383646065013436 0.28083039047615777 -1.2756404550104856 
B 5.715269574241309 1.6923480743171428 1.0997873593308531 -0.47534315912058694 1.0058210750506646 0.056017931075675376 
B 0.6863707876792157 2.6986524994279155 1.6157898826600579 2.337214894522589 -0.2803907316711577 0.6223236687362556 
B 3.488583644093102 1.422972130061593 0.7478829462887892 -4.084608990187809 2.079389458185254 -4.783497054376334 
B 6.980420758188765 2.2584386134434835 3.4841703903141923 -0.9868825791924746 -1.6918307357984577 2.2483189694765082 
N 4.284249837747718 2.3089667083767096 1.6937282871121002 3.1862685521141167 -4.412378485971596 -3.4861549379068775 
N 4.9715000047979885 1.8060357037410568 4.668805007083132 -0.7910176668898609 -4.003768334358486 0.3576213002016467 
N 6.856767088859952 7.591773241736646 5.482496530591533 -1.1255417103146756 -2.481946202251625 2.0279141538737555 
N 0.31816475297481434 7.109015776259793 3.6189755870614033 0.08713960381979034 -1.0307792969915848 1.1116906581842854 
N 2.6555870561811945 6.955296523474236 5.170334768593431 5.141332784661824 0.10134315432541759 -0.9671542401477579 
N 5.72494430512515 7.044183941051965 2.2220265436135374 -2.3832600269267172 -1.9891724998408753 0.4005757083397478 
N 1.9652267369355163 3.7465502446576053 5.546112501141952 0.021344277985901397 0.2445490259783921 0.21583107847869012 
N 0.16317433355191524 0.9441901759309383 7.679628615322659 -2.3161212991886613 0.39031443178562175 -3.273889209515285 
N 6.592626917972181 1.2591435195639868 2.2621765599463055 1.4589920606578062 3.055688601477015 3.5795538947136434 
N 0.06092097265507438 4.0320393165030435 0.08007804584467669 -1.4382558487969488 -1.8043517652977823 -1.7496453544351511 
N 3.6420918146735612 2.212704654939695 6.935424419051129 -0.3835593699237688 -1.984720118831409 0.2689125515357067 
N 5.891309017688433 2.243073230934385 7.459424699140278 1.7244408207192663 1.6216745602618745 0.650571361291896 
N 3.0017065705617747 0.15822909030406873 0.031250292069121124 0.028103967835175436 -6.23441764786141 2.49384527213198 
N 4.494264169402091 6.682568188773147 6.825661672400234 4.664350546662947 1.60675212904351 -3.0023546459951387 
N 6.853553342814809 6.405881478550628 7.764443158913462 -0.26566858946396005 1.2384165237412987 3.3414796802477182 
N 1.8957503143144083 1.904568253959844 0.9034115863896317 -2.507193416295949 0.8731443890014128 4.089408213143443 
N 7.3713450020300275 4.2979935481128555 5.837050765263644 -0.7602292092400618 1.571614134549157 -2.867783056207377 
N 1.2478782725812172 6.112798899629547 6.465993172935972 0.6585435838454862 -0.28780271063638807 2.167192921089553 
N 7.096153781969088 5.373994045962219 3.462865107819572 -1.6531780419682263 1.1071534307387665 4.204649470804697 
N 1.1906968042312163 6.366842175223282 1.1357725913438488 0.3703693486633524 -3.915847114885362 -2.310589054447616 
N 1.9247667179546708 0.5133402392811435 3.361873566746563 -2.092720118841188 3.085815771146428 -2.072503270013138 
N 7.5123650508601765 1.943021044739445 4.893166697475154 0.8846385099824251 4.471079107089009 -3.6561008066578773 
N 3.0697498151113694 7.055164110222683 2.556208619339764 3.080972325199882 -3.9069649785827103 -2.740231094895706 
N 4.556097235275503 5.769315186658749 4.2066759590225615 0.393811647613465 0.42597693152102767 -0.30043711629586567 
N 1.632766811598483 0.9492779580848103 5.7505171868881515 0.8227589757275726 3.141257774898594 1.6665318425612654 
N 1.6460369500791194 5.141459346056942 3.518484100511173 2.01323392066376 -0.11368291145242143 0.6455944750413769 
N 3.186655863987182 4.52479709353433 7.59838767009713 1.6725166016279254 2.4136810737973673 0.134727912918428 
N 2.542809183272241 4.186698702947468 1.8707421358676282 1.2254306481482333 0.22528734233196504 -2.0531523690536493 
N 5.194616232289818 4.106642466334314 6.073144264412802 -0.6935702495313216 2.1836754982896376 1.3391750089891898 
N 2.903059521877492 2.7223910690396056 3.6062351013463263 0.37826880897026716 -0.4542274522912031 2.786117590175457 
N 0.0069392301299518976 3.9838821965968205 2.0390860361916268 0.36609334539671073 -2.707437176030117 -1.6804248036888578 
N 5.2732704468764915 3.5430568732286183 3.271994608035663 3.3320311297068117 0.40078448199451977 1.800619293442702 