64
Lattice="8.374343209356287 0.0 0.0 0.0 8.374343209356287 0.0 0.0 0.0 8.374343209356287" Properties=species:S:1:pos:R:3:forces:R:3 energy=-17136.256366 pbc="T T T"
B 8.023429756117347 1.5706566401053859 3.9218230031808012 0.5511843029831106 -1.3863357434722046 0.7895739919249042 
B 7.787814260184824 4.970129985602589 1.7628277183364103 0.5231620962590404 0.7618430912979482 1.6654280675613442 
B 3.47586326681863 2.727932251235959 5.815852394012517 1.2637267298366313 -0.48170201383711525 1.0477079607569761 
B 1.8874530191094085 1.6703004376505535 0.04591568638257958 0.2913888866668804 0.6656971668463744 -0.8752449810697467 
B 4.801443915467883 6.216820134048101 0.6988615515474474 -0.962457861357037 -0.24598781584551535 -0.30246468900711193 
B 4.076062493845046 5.825921704287447 5.5691082333890805 1.0340289154924016 0.6592532085833812 -0.7941564708029847 
B 4.592482279102099 7.71337891056846 2.9026001147251077 -1.8396393980520827 0.8611175352461548 2.852016531505495 
B 2.8970872845903886 4.416973631554732 4.250639914427534 1.4632045576526145 -1.2948260339748778 -1.0855486999052246 
B 3.648378924102974 2.124001416875454 2.1675354400492925 2.324490757329225 0.10281742542943559 0.058361235373202425 
B 0.3826254161041306 0.4333580247007319 1.2132790313431434 -0.04090832347717066 -0.8995100333391579 1.0713878297280361 
B 4.922849281276883 0.22182295266671306 0.31004414607431874 1.9307840107639709 2.0096526297311006 1.2099749699347986 
B 3.439424824646079 0.03041812683934484 6.569992147650604 -0.06119407789571208 -0.15673193622224188 -2.9574446560612295 
B 0.9978398405049227 3.0790341271971102 5.235704694366583 -0.5692637929538706 2.4383593024993138 1.026517949018443 
B 2.1336436356467066 6.9123763323308145 3.2078826092505865 -2.3867040208992183 -0.2614771755229588 0.40167742645637095 
B 5.998310071555009 8.360957659170452 6.033133940356796 1.6600331197804565 0.3208678809869334 -0.5359078307270356 
B 5.781778866362289 2.650875732195067 7.845392894355074 -0.7254025754549808 0.04115900612914442 -1.9196863540386955 
B 3.562020184625129 4.039239669319185 8.269057616790976 -0.7684793681493275 -0.4297806229603095 -2.007841801097407 
B 1.6663703583824026 5.147572268996997 0.8725529666183852 0.7778147901088304 1.57579217874872 -1.6542751320974285 
B 6.231272575558807 5.124289082572023 6.952080768355015 -0.6877441275890391 -0.2382019983408287 -2.3453359840048895 
B 2.160057151563337 0.9245484261709574 4.199454253863307 1.2048170779540337 0.39581556616678143 -0.0023965261528691687 
B 8.302338094139278 1.601876191589866 7.285288347746413 -2.063766658203837 -0.8246016860523888 -2.869201277241518 
B 0.5453338800559976 7.586446478241284 5.844922251595155 -1.0750647657340635 1.1973315654108911 -0.5103371717840628 
B 5.8849524495702 2.447596925131153 4.607228660059454 -2.8881564852765065 0.5177409232161002 0.6240360240820455 
B 2.52863209463081 7.649309322976638 0.5715078897568407 -1.5100315628204888 -1.7900834229682603 -0.5470754214844514 
B 7.125944694896066 2.218420461692304 1.612308948360082 -0.6751264341063598 -0.32987291606665553 1.5451181352323855 
B 1.8690947839258576 5.399947337994404 6.374485568519294 -2.0248859074379126 -1.3749493517539377 0.690412419447689 
B 5.475095344217884 4.306261464589758 2.718764020290356 -0.8263106989628192 -0.6272668735227659 -0.3438972606149231 
B 7.870864296660652 3.986306283327165 8.03380724222238 1.5363804949814355 0.684533589870889 -0.24850724077545472 
B 7.0970247380568745 8.344242470124577 2.4538349733878024 0.24419781315521658 -0.23639965435074042 1.186534470757572 
B 1.2911537237155895 3.576197947678569 3.1547666625766024 0.6858975606080385 0.45275009586223774 0.9435589605023383 
B 7.2740801267950115 6.300618836806845 4.054523683110581 0.4488227343146488 0.02344281317093714 1.9299702563091023 
B 7.361266251381941 6.918225811062551 0.04961212147518945 0.9619426120908264 0.919709398659173 -0.42606640594450135 
N 1.9594112380044442 3.6015119123318113 7.145365634232884 2.380944747664129 2.993870516610697 -2.053241586366711 
N 3.5941483523478244 1.9552198792281614 0.06851720127031126 -3.42870515894521 -0.6361572373586107 2.114163898556642 
N 0.06114861668039867 4.825139119578756 5.395376621470738 3.4359968102374934 -1.2432545703691862 -1.7061710690434184 
N 5.99120444134187 4.441346320031242 4.8954877897089535 0.7158154424018549 -1.4006470232405774 -1.229778899440726 
N 4.147302194092719 2.813691387740014 3.793714813067031 0.529087977041288 0.5855460811427879 -0.033939602862712345 
N 2.3838798973884443 6.99011619777759 5.162901504241724 -0.5347449203322896 -1.4757901123337587 0.7185205010494611 
N 4.50040972525251 4.299325833543768 6.75236356945804 0.058737902127193764 1.4277767997236208 0.5750341219366882 
N 7.353699194857966 3.457960595905668 3.2935513028479804 -1.7384425395512528 -2.942070996069313 -2.0271057987375447 
N 5.952083697039362 0.5409741969812067 4.062439112312065 0.5357059990533952 0.7513311320918485 -0.28815726589492324 
N 0.7056958530406031 5.344747854729932 3.4064885328036802 -0.8832863663242405 -1.6127859961989157 -0.23237690484019533 
N 3.097205614527092 6.081435477119721 8.132881584429313 -0.534760861177851 0.11668493262621185 4.356949594850456 
N 6.838298567169491 0.4378232244999607 8.241012778817161 0.2982707039619878 -2.0048698618418537 -0.6368195537806461 
N 3.8607070464389186 0.4300476468300734 4.556424869545573 -3.716567262086835 -0.8956896297230778 -0.03465179870473011 
N 1.968147352840445 1.2756888241108713 6.127202100193174 2.817555251616265 0.23282993338663405 -2.7169752009944967 
N 0.3347317098555011 7.916426585759796 3.909256463760841 -0.9161101099976543 -0.7368370468203439 1.2374621298909125 
N 3.1444536589142804 0.07895665751509481 2.097979820221021 2.037095566696302 -3.3175486144038597 -0.06509444285001154 
N 3.7276789296896524 5.487330259646754 2.5550338864669473 0.021409841141032997 -2.0654257916942846 0.6543398286046953 
N 5.654172299406758 4.193552016769352 0.8289653476480067 -1.0963419379023598 0.6843690392070293 0.9683757717165039 
N 5.352533481611672 1.5680195594287594 1.824053378974335 1.0851419512329965 -0.29267495294910884 -2.4879286473245745 
N 1.2267935464144026 7.965524522561931 7.621754384080573 1.089368332190068 0.4890659131552491 1.1646793143824687 
N 0.8238394121695596 6.896769906325859 1.6880691190721657 3.2771524548679523 0.9816498680817362 -0.33326985883370924 
N 4.863156125446271 7.04901881560924 6.984835336949771 -1.3227189141615707 3.2109287830872035 -2.697557708438228 
N 2.830553965226374 3.825109388324587 1.7702666474092812 -0.5501977703311892 2.939637703127487 -1.261125029574762 
N 5.1306946176928605 6.46539241379414 4.270404201835936 -1.2514638487228993 0.44966142847950874 -0.29196249999667884 
N 5.184967898598377 1.846235339267278 6.30264626529783 -0.03581290932659013 0.7976467446496963 -0.23590368836545078 
N 0.36887390712004664 5.704190576527601 7.693656494876105 -0.3692843427235275 -2.4534406279524674 3.030780773176902 
N 7.435797905945211 2.9973692070881093 6.302972864682995 2.532422632611413 -0.27269258881705877 4.424760923427038 
N 6.469000918283052 6.609353235603221 1.907624299597785 1.3403145223364183 1.328156542270897 -1.7095399867755332 
N 0.4304211425372107 2.9783854084668198 0.9299599267528434 -4.420913523217669 0.22738484907535167 -2.4453141391515087 
N 7.770798432217732 0.7718883366359971 5.685030916698916 0.9877171595907379 -0.5519376364910933 1.3805098786403343 
N 1.3903143216575773 1.6386211347238795 2.744222023646799 -0.3488661764426615 0.9454242965434354 4.956678914776301 
N 7.177645377567669 6.679177671848513 6.1699656837917525 0.20873945908716163 0.6897025375993818 -0.712230551923424 