Siesta Version  : NO_VERSION_LABEL_AVAILABLE
Architecture    : ----
Compiler version: GNU-11.4.0
Compiler flags  : -fallow-argument-mismatch;-O3 -march=native
PP flags        : ----
Libraries       : ----
Parallelisations: MPI

Runtime information:
* Directory : /home/ICN2/jgarridoa/aiida_run/c3/fd/9241-d16a-4212-8751-87c32e3f72cb
* Running on 24 nodes in parallel.
>> Start of run:  13-APR-2024  13:58:16

                           *********************** 
                           *  WELCOME TO SIESTA  * 
                           *********************** 

reinit: Reading from standard input
reinit: Dumping input in INPUT_TMP.14885
************************** Dump of input data file ****************************
atomiccoordinatesformat Ang
cdfsave True
dminitspinaf False
dmmixingweight 0.025
dmmixscf1 True
dmnumberpulay 10
dmtolerance 1e-05
electronictemperature 50.000 K
geometrymustconverge T
latticeconstant 1.0 Ang
maxscfiterations 1000
meshcutoff 400 Ry
noncollinearspin False
numberofatoms 3
numberofspecies 2
savehs True
solutionmethod diagon
spinorbit False
spinpolarized False
systemlabel aiida
systemname aiida
usetreetimer T
writedmhsnetcdf True
writeorbmom True
xcauthors PBEsol
xcfunctional GGA
xmlwrite T
#
# -- Basis Set Info follows
#
PAO-BasisSize DZP
PAO-SplitNorm 0.15
PAO-EnergyShift 0.005 Ry
#
# -- Structural Info follows
#
%block chemicalspecieslabel
    1     7      N
    2     6      C
%endblock chemicalspecieslabel
%block lattice-vectors
      3.5999900000       0.0000000000       0.0000000000
      0.0000000000       3.5999900000       0.0000000000
      0.0000000000       0.0000000000       3.5999900000
%endblock lattice-vectors
%block atomiccoordinatesandatomicspecies
      2.9851477079       0.6391782245       0.0000000000    1      N      1
      2.4815091069       1.3315283013       2.7966522315    1      N      2
      3.4607423868       3.5021422718       0.3903829156    2      C      3
%endblock atomiccoordinatesandatomicspecies
#
# -- K-points Info follows
#
%block kgrid_monkhorst_pack
     8      0      0       0.0000000000
     0      8      0       0.0000000000
     0      0      8       0.0000000000
%endblock kgrid_monkhorst_pack
#
# -- Max wall-clock time block
#
maxwalltime 7200000
************************** End of input data file *****************************

reinit: -----------------------------------------------------------------------
reinit: System Name: aiida
reinit: -----------------------------------------------------------------------
reinit: System Label: aiida
reinit: -----------------------------------------------------------------------

initatom: Reading input for the pseudopotentials and atomic orbitals ----------
Species number:   1 Atomic number:    7 Label: N
Species number:   2 Atomic number:    6 Label: C


---- Processing specs for species: N
Ground state valence configuration:   2s02  2p03
Reading pseudopotential information in PSML from:
  N.psml
PSML file version: 1.1
Using libxc ids:  116 133
GGA--PBEsol XC_GGA_X_PBE_SOL--XC_GGA_C_PBE_SOL ps
PSML uuid: 56b43770-1d5f-11e8-525f-e1e3c77dc801

---- Processing specs for species: C
Ground state valence configuration:   2s02  2p02
Reading pseudopotential information in PSML from:
  C.psml
PSML file version: 1.1
Using libxc ids:  116 133
GGA--PBEsol XC_GGA_X_PBE_SOL--XC_GGA_C_PBE_SOL ps
PSML uuid: 51a02af0-1d5f-11e8-49c3-12b9ebd99919

---- Pseudopotential check for N 

Pseudized shells:
2s( 2.00) rc: 1.21
2p( 3.00) rc: 1.36
Valence configuration for ps generation: 2s:2p: Total charge:   5.000000

---- Pseudopotential check for C 

Pseudized shells:
2s( 2.00) rc: 1.20
2p( 2.00) rc: 1.26
Valence configuration for ps generation: 2s:2p: Total charge:   4.000000
For N, standard SIESTA heuristics set lmxkb to 3
 (one more than the basis l, including polarization orbitals).
Use PS.lmax or PS.KBprojectors blocks to override.
For C, standard SIESTA heuristics set lmxkb to 3
 (one more than the basis l, including polarization orbitals).
Use PS.lmax or PS.KBprojectors blocks to override.
N pseudopotential only contains V_ls up to l=1 -- lmxkb reset.
C pseudopotential only contains V_ls up to l=1 -- lmxkb reset.

<basis_specs>
===============================================================================
N                    Z=   7    Mass=  14.007        Charge= 0.17977+309
Lmxo=2 Lmxkb= 1    BasisType=split      Semic=F
L=0  Nsemic=0  Cnfigmx=2
          i=1  nzeta=2  polorb=0  (2s)
            splnorm:   0.15000    
               vcte:    40.000    
               rinn:  -0.90000    
               qcoe:    0.0000    
               qyuk:    0.0000    
               qwid:   0.10000E-01
                rcs:    0.0000      0.0000    
            lambdas:    1.0000      1.0000    
L=1  Nsemic=0  Cnfigmx=2
          i=1  nzeta=2  polorb=1  (2p)  (to be polarized perturbatively)
            splnorm:   0.15000    
               vcte:    40.000    
               rinn:  -0.90000    
               qcoe:    0.0000    
               qyuk:    0.0000    
               qwid:   0.10000E-01
                rcs:    0.0000      0.0000    
            lambdas:    1.0000      1.0000    
L=2  Nsemic=0  Cnfigmx=3
          i=1  nzeta=0  polorb=0  (3d)  (perturbative polarization orbital) (from 2p)
-------------------------------------------------------------------------------
L=0  Nkbl=1  erefs: 0.17977+309
L=1  Nkbl=1  erefs: 0.17977+309
===============================================================================
</basis_specs>

Using PAO.SplitTailNorm
atom: Called for N                     (Z =   7)
NOTE: N pseudopotential has channels up to l= 1
NOTE: PAOs with higher l will be generated with V_local
Maximum radius (at nrval) set to   50.00000 8518

read_vps: Pseudopotential generation method:
read_vps: ONCVPSP-3.Hamann's oncvpsp                        
Valence charge in pseudo generation:    5.00000

read_vps: Pseudopotential includes a core correction:
read_vps: Pseudo-core for xc-correction

xc_check: Exchange-correlation functional:
xc_check: GGA PBEsol
Got Vlocal (oncv-fit) from psml data
Choosing vlocal chloc cutoff:  6.038618
qtot up to nchloc:    4.99997633
atom: Maximum radius for chlocal:    6.03862
atom: Maximum radius for r*vlocal+2*Zval:    6.03862
Reading KB projs from N psml data
Using scalar-relativistic projectors in PSML file

PSML: Kleinman-Bylander projectors: 
   l= 0   rc=  1.214864   Ekb= 14.928379
   l= 0   rc=  1.221004   Ekb=  1.251736
   l= 1   rc=  1.375180   Ekb= -8.619428
   l= 1   rc=  1.375180   Ekb= -2.025883

PSML: Total number of  Kleinman-Bylander projectors:   8
atom: -------------------------------------------------------------------------

atom: SANKEY-TYPE ORBITALS:
atom: Selected multiple-zeta basis: split     

SPLIT: Orbitals with angular momentum L= 0

SPLIT: Basis orbitals for state 2s

SPLIT: PAO cut-off radius determined from an
SPLIT: energy shift=  0.005000 Ry
Split based on tail norm

   izeta = 1
                 lambda =    1.000000
                     rc =    4.265195
                 energy =   -1.350827
                kinetic =    1.238925
    potential(screened) =   -2.589752
       potential(ionic) =   -8.091187

   izeta = 2
                 rmatch =    2.696970
              splitnorm =    0.150000
                 energy =   -1.041987
                kinetic =    2.172223
    potential(screened) =   -3.214210
       potential(ionic) =   -9.191634

SPLIT: Orbitals with angular momentum L= 1

SPLIT: Basis orbitals for state 2p

SPLIT: PAO cut-off radius determined from an
SPLIT: energy shift=  0.005000 Ry
Split based on tail norm

   izeta = 1
                 lambda =    1.000000
                     rc =    5.253677
                 energy =   -0.511511
                kinetic =    3.468518
    potential(screened) =   -3.980029
       potential(ionic) =   -9.293867

   izeta = 2
                 rmatch =    3.312873
              splitnorm =    0.150000
                 energy =   -0.376057
                kinetic =    4.835938
    potential(screened) =   -5.211995
       potential(ionic) =  -11.044105
*Note: V_local used for l= 2

** Using vlocal for PAOs with L= 2

POLgen: Perturbative polarization orbital with L=  2

POLgen: Polarization orbital for state 2p
*Note: V_local used for lpol= 2

** Using vlocal for PAOs with L= 2
Split based on tail norm

   izeta = 1
                     rc =    5.253677
                 energy =    1.558482
                kinetic =    2.921564
    potential(screened) =   -1.363082
       potential(ionic) =   -5.578203
atom: Total number of Sankey-type orbitals: 13

atm_pop: Valence configuration (for local Pseudopot. screening):
 2s( 2.00)                                                            
 2p( 3.00)                                                            
 3d( 0.00)                                                            
Vna: chval, zval:    5.00000   5.00000

Vna:  Cut-off radius for the neutral-atom potential:   5.253677
comcore: Pseudo-core radius Rcore=  1.572221

atom: _________________________________________________________________________

<basis_specs>
===============================================================================
C                    Z=   6    Mass=  12.011        Charge= 0.17977+309
Lmxo=2 Lmxkb= 1    BasisType=split      Semic=F
L=0  Nsemic=0  Cnfigmx=2
          i=1  nzeta=2  polorb=0  (2s)
            splnorm:   0.15000    
               vcte:    40.000    
               rinn:  -0.90000    
               qcoe:    0.0000    
               qyuk:    0.0000    
               qwid:   0.10000E-01
                rcs:    0.0000      0.0000    
            lambdas:    1.0000      1.0000    
L=1  Nsemic=0  Cnfigmx=2
          i=1  nzeta=2  polorb=1  (2p)  (to be polarized perturbatively)
            splnorm:   0.15000    
               vcte:    40.000    
               rinn:  -0.90000    
               qcoe:    0.0000    
               qyuk:    0.0000    
               qwid:   0.10000E-01
                rcs:    0.0000      0.0000    
            lambdas:    1.0000      1.0000    
L=2  Nsemic=0  Cnfigmx=3
          i=1  nzeta=0  polorb=0  (3d)  (perturbative polarization orbital) (from 2p)
-------------------------------------------------------------------------------
L=0  Nkbl=1  erefs: 0.17977+309
L=1  Nkbl=1  erefs: 0.17977+309
===============================================================================
</basis_specs>

Using PAO.SplitTailNorm
atom: Called for C                     (Z =   6)
NOTE: C pseudopotential has channels up to l= 1
NOTE: PAOs with higher l will be generated with V_local
Maximum radius (at nrval) set to   50.00000 8518

read_vps: Pseudopotential generation method:
read_vps: ONCVPSP-3.Hamann's oncvpsp                        
Valence charge in pseudo generation:    4.00000

read_vps: Pseudopotential includes a core correction:
read_vps: Pseudo-core for xc-correction

xc_check: Exchange-correlation functional:
xc_check: GGA PBEsol
Got Vlocal (oncv-fit) from psml data
Choosing vlocal chloc cutoff:  4.114026
qtot up to nchloc:    4.00001066
atom: Maximum radius for chlocal:    4.11403
atom: Maximum radius for r*vlocal+2*Zval:    4.11403
Reading KB projs from C psml data
Using scalar-relativistic projectors in PSML file

PSML: Kleinman-Bylander projectors: 
   l= 0   rc=  1.219773   Ekb= 12.937878
   l= 0   rc=  1.219773   Ekb=  0.780062
   l= 1   rc=  1.278952   Ekb= -8.359390
   l= 1   rc=  1.278952   Ekb= -1.756905

PSML: Total number of  Kleinman-Bylander projectors:   8
atom: -------------------------------------------------------------------------

atom: SANKEY-TYPE ORBITALS:
atom: Selected multiple-zeta basis: split     

SPLIT: Orbitals with angular momentum L= 0

SPLIT: Basis orbitals for state 2s

SPLIT: PAO cut-off radius determined from an
SPLIT: energy shift=  0.005000 Ry
Split based on tail norm

   izeta = 1
                 lambda =    1.000000
                     rc =    4.858714
                 energy =   -0.997375
                kinetic =    0.928233
    potential(screened) =   -1.925608
       potential(ionic) =   -5.470603

   izeta = 2
                 rmatch =    3.157143
              splitnorm =    0.150000
                 energy =   -0.747328
                kinetic =    1.689643
    potential(screened) =   -2.436971
       potential(ionic) =   -6.275825

SPLIT: Orbitals with angular momentum L= 1

SPLIT: Basis orbitals for state 2p

SPLIT: PAO cut-off radius determined from an
SPLIT: energy shift=  0.005000 Ry
Split based on tail norm

   izeta = 1
                 lambda =    1.000000
                     rc =    5.984425
                 energy =   -0.378962
                kinetic =    2.440834
    potential(screened) =   -2.819796
       potential(ionic) =   -6.224005

   izeta = 2
                 rmatch =    3.889428
              splitnorm =    0.150000
                 energy =   -0.273331
                kinetic =    3.469746
    potential(screened) =   -3.743077
       potential(ionic) =   -7.475055
*Note: V_local used for l= 2

** Using vlocal for PAOs with L= 2

POLgen: Perturbative polarization orbital with L=  2

POLgen: Polarization orbital for state 2p
*Note: V_local used for lpol= 2

** Using vlocal for PAOs with L= 2
Split based on tail norm

   izeta = 1
                     rc =    5.984425
                 energy =    1.076317
                kinetic =    2.134413
    potential(screened) =   -1.058097
       potential(ionic) =   -3.835567
atom: Total number of Sankey-type orbitals: 13

atm_pop: Valence configuration (for local Pseudopot. screening):
 2s( 2.00)                                                            
 2p( 2.00)                                                            
 3d( 0.00)                                                            
Vna: chval, zval:    4.00000   4.00000

Vna:  Cut-off radius for the neutral-atom potential:   5.984425
comcore: Pseudo-core radius Rcore=  1.671741

atom: _________________________________________________________________________

prinput: Basis input 

PAO.BasisType split     

%block ChemicalSpeciesLabel
    1    7 N                       # Species index, atomic number, species label
    2    6 C                       # Species index, atomic number, species label
%endblock ChemicalSpeciesLabel

%block PAO.Basis                 # Define Basis set
# WARNING: This information might be incomplete!
N                     2                    # Species label, number of l-shells
 n=2   0   2                         # n, l, Nzeta 
   4.265      2.697   
   1.000      1.000   
 n=2   1   2 P   1                   # n, l, Nzeta, Polarization, NzetaPol
   5.254      3.313   
   1.000      1.000   
C                     2                    # Species label, number of l-shells
 n=2   0   2                         # n, l, Nzeta 
   4.859      3.157   
   1.000      1.000   
 n=2   1   2 P   1                   # n, l, Nzeta, Polarization, NzetaPol
   5.984      3.889   
   1.000      1.000   
%endblock PAO.Basis

prinput: ----------------------------------------------------------------------

coor:   Atomic-coordinates input format  =     Cartesian coordinates
coor:                                          (in Angstroms)

siesta: Atomic coordinates (Bohr) and species
siesta:      5.64111   1.20787   0.00000  1        1
siesta:      4.68937   2.51622   5.28491  1        2
siesta:      6.53986   6.61809   0.73772  2        3

siesta: System type = bulk      

initatomlists: Number of atoms, orbitals, and projectors:      3    39    24

siesta: ******************** Simulation parameters ****************************
siesta:
siesta: The following are some of the parameters of the simulation.
siesta: A complete list of the parameters used, including default values,
siesta: can be found in file out.fdf
siesta:
redata: Spin configuration                          = none
redata: Number of spin components                   = 1
redata: Time-Reversal Symmetry                      = T
redata: Spin spiral                                 = F
redata: Long output                                 =   F
redata: Number of Atomic Species                    =        2
redata: Charge density info will appear in .RHO file
redata: Write Mulliken Pop.                         = NO
redata: Matel table size (NRTAB)                    =     1024
redata: Mesh Cutoff                                 =   400.0000 Ry
redata: Net charge of the system                    =     0.0000 |e|
redata: Min. number of SCF Iter                     =        0
redata: Max. number of SCF Iter                     =     1000
redata: SCF convergence failure will abort job
redata: SCF mix quantity                            = Hamiltonian
redata: Mix DM or H after convergence               =   F
redata: Recompute H after scf cycle                 =   F
redata: Mix DM in first SCF step                    =   T
redata: Write Pulay info on disk                    =   F
redata: New DM Occupancy tolerance                  = 0.000000000001
redata: No kicks to SCF
redata: DM Mixing Weight for Kicks                  =     0.5000
redata: Require Harris convergence for SCF          =   F
redata: Harris energy tolerance for SCF             =     0.000100 eV
redata: Require DM convergence for SCF              =   T
redata: DM tolerance for SCF                        =     0.000010
redata: Require EDM convergence for SCF             =   F
redata: EDM tolerance for SCF                       =     0.001000 eV
redata: Require H convergence for SCF               =   T
redata: Hamiltonian tolerance for SCF               =     0.001000 eV
redata: Require (free) Energy convergence for SCF   =   F
redata: (free) Energy tolerance for SCF             =     0.000100 eV
redata: Using DFT-D3 dispersion                     =   F
redata: Using Saved Data (generic)                  =   F
redata: Use continuation files for DM               =   T
redata: Neglect nonoverlap interactions             =   F
redata: Method of Calculation                       = Diagonalization
redata: Electronic Temperature                      =    50.0000 K
redata: Fix the spin of the system                  =   F
redata: Max. number of TDED Iter                    =        1
redata: Number of TDED substeps                     =        3
redata: Dynamics option                             = Single-point calculation
mix.SCF: Pulay mixing                            = Pulay
mix.SCF:    Variant                              = stable
mix.SCF:    History steps                        = 10
mix.SCF:    Linear mixing weight                 =     0.025000
mix.SCF:    Mixing weight                        =     0.025000
mix.SCF:    SVD condition                        = 0.1000E-07
redata: ***********************************************************************

%block SCF.Mixers
  Pulay
%endblock SCF.Mixers

%block SCF.Mixer.Pulay
  # Mixing method
  method pulay
  variant stable

  # Mixing options
  weight 0.0250
  weight.linear 0.0250
  history 10
%endblock SCF.Mixer.Pulay

DM_history_depth set to one: no extrapolation allowed by default for geometry relaxation
Size of DM history Fstack: 1
Total number of electrons:    14.000000
Total ionic charge:    14.000000

* ProcessorY, Blocksize:    6   1


* Orbital distribution balance (max,min):     2     1

k-point displ. along   1 input, could be:     0.00    0.50
k-point displ. along   2 input, could be:     0.00    0.50
k-point displ. along   3 input, could be:     0.00    0.50
 Kpoints in:          320 . Kpoints trimmed:          296

siesta: k-grid: Number of k-points = 296
siesta: k-points from Monkhorst-Pack grid
siesta: k-cutoff (effective) =    14.400 Ang
siesta: k-point supercell and displacements
siesta: k-grid:     8     0     0      0.000
siesta: k-grid:     0     8     0      0.000
siesta: k-grid:     0     0     8      0.000

diag: Algorithm                                     = D&C
diag: Parallel over k                               =   F
diag: Use parallel 2D distribution                  =   T
diag: Parallel block-size                           = 1
diag: Parallel distribution                         =     4 x     6
diag: Used triangular part                          = Lower
diag: Absolute tolerance                            =  0.100E-15
diag: Orthogonalization factor                      =  0.100E-05
diag: Memory factor                                 =  1.0000

superc: Internal auxiliary supercell:     5 x     5 x     5  =     125
superc: Number of atoms, orbitals, and projectors:    375   4875   3000


ts: **************************************************************
ts: Save H and S matrices                           =    F
ts: Save DM and EDM matrices                        =    F
ts: Only save the overlap matrix S                  =    F
ts: **************************************************************

************************ Begin: TS CHECKS AND WARNINGS ************************
************************ End: TS CHECKS AND WARNINGS **************************


                     ====================================
                        Single-point calculation
                     ====================================

superc: Internal auxiliary supercell:     5 x     5 x     5  =     125
superc: Number of atoms, orbitals, and projectors:    375   4875   3000

outcell: Unit cell vectors (Ang):
        3.599990    0.000000    0.000000
        0.000000    3.599990    0.000000
        0.000000    0.000000    3.599990

outcell: Cell vector modules (Ang)   :    3.599990    3.599990    3.599990
outcell: Cell angles (23,13,12) (deg):     90.0000     90.0000     90.0000
outcell: Cell volume (Ang**3)        :     46.6556
<dSpData1D:S at geom step 0
  <sparsity:sparsity for geom step 0
    nrows_g=39 nrows=2 sparsity=.7114 nnzs=1082, refcount: 7>
  <dData1D:(new from dSpData1D) n=1082, refcount: 1>
refcount: 1>
new_DM -- step:     1
Initializing Density Matrix...

Attempting to read DM from file... Failed...
DM filled with atomic data:
<dSpData2D:DM initialized from atoms
  <sparsity:sparsity for geom step 0
    nrows_g=39 nrows=2 sparsity=.7114 nnzs=1082, refcount: 8>
  <dData2D:DM n=1082 m=1, refcount: 1>
refcount: 1>
No. of atoms with KB's overlaping orbs in proc 0. Max # of overlaps:      11     144

InitMesh: MESH = 48 x 48 x 48 = 110592
InitMesh: Mesh cutoff (required, used) =   400.000   491.340 Ry
New grid distribution [1]: sub = 2
New grid distribution [2]: sub = 2
New grid distribution [3]: sub = 2
Setting up quadratic distribution...

stepf: Fermi-Dirac step function

siesta: Program's energy decomposition (eV):
siesta: Ebs     =      -213.690711
siesta: Eions   =      1181.000621
siesta: Ena     =       260.644514
siesta: Ekin    =       509.601692
siesta: Enl     =       -54.397432
siesta: Eso     =         0.000000
siesta: Edftu   =         0.000000
siesta: DEna    =       -26.499276
siesta: DUscf   =         4.540491
siesta: DUext   =         0.000000
siesta: Ex      =      -204.830948
siesta: Ec      =       -18.183766
siesta: Exc     =      -223.014715
siesta: EbV     =         0.000000
siesta: eta*DQ  =         0.000000
siesta: Emadel  =         0.000000
siesta: Emeta   =         0.000000
siesta: Emolmec =         0.000000
siesta: Ekinion =         0.000000
siesta: Eharris =      -703.930963
siesta: Etot    =      -710.125347
siesta: FreeEng =      -710.125525

        iscf     Eharris(eV)        E_KS(eV)     FreeEng(eV)     dDmax    Ef(eV) dHmax(eV)
   scf:    1     -703.930963     -710.125347     -710.125525  1.173543 -7.379319  6.048349
             Section          Calls    Walltime % sect.
 IterSCF                          1       1.902  100.00
  compute_dm                      1       1.865   98.08
  setup_H                         1       0.036    1.88
  MIXER                           1       0.000    0.00
timer: Routine,Calls,Time,% = IterSCF        1       1.902  68.83
   scf:    2     -710.586094     -710.358968     -710.359147  0.015622 -7.395079  5.641513
   scf:    3     -711.392102     -711.602244     -711.602368  0.191528 -7.523200  2.466321
   scf:    4     -702.062802     -707.889336     -707.889475  0.228759 -7.548027  8.645760
   scf:    5     -711.925708     -711.816455     -711.816533  0.277954 -7.023858  0.850632
   scf:    6     -711.802892     -711.813457     -711.813549  0.035037 -6.844382  1.032190
   scf:    7     -711.877455     -711.850247     -711.850321  0.014039 -6.946826  0.479302
   scf:    8     -711.865133     -711.858681     -711.858756  0.007235 -6.963095  0.296190
   scf:    9     -711.863681     -711.862418     -711.862503  0.009459 -7.023955  0.027218
   scf:   10     -711.862303     -711.862375     -711.862459  0.000502 -7.023032  0.034913
   scf:   11     -711.862308     -711.862413     -711.862499  0.001366 -7.032667  0.026571
   scf:   12     -711.862460     -711.862443     -711.862529  0.000392 -7.030259  0.007303
   scf:   13     -711.862448     -711.862446     -711.862531  0.000238 -7.029166  0.000783
   scf:   14     -711.862445     -711.862446     -711.862531  0.000034 -7.029331  0.002206
   scf:   15     -711.862446     -711.862446     -711.862531  0.000080 -7.029197  0.000295
   scf:   16     -711.862446     -711.862446     -711.862531  0.000005 -7.029188  0.000268

SCF Convergence by DM+H criterion
max |DM_out - DM_in|         :     0.0000050592
max |H_out - H_in|      (eV) :     0.0002677293
SCF cycle converged after 16 iterations

Using DM_out to compute the final energy and forces
No. of atoms with KB's overlaping orbs in proc 0. Max # of overlaps:      11     144

siesta: E_KS(eV) =             -711.8624

siesta: E_KS - E_eggbox =      -711.8624

siesta: Atomic forces (eV/Ang):
----------------------------------------
   Tot    0.000431    0.000920   -0.000021
----------------------------------------
   Max   46.932776
   Res   27.064570    sqrt( Sum f_i^2 / 3N )
----------------------------------------
   Max   46.932776    constrained

Stress tensor Voigt[x,y,z,yz,xz,xy] (kbar):     -540.80    -1271.88     -453.38      831.59     -525.76      889.13
(Free)E + p*V (eV/cell)     -689.8665
Target enthalpy (eV/cell)     -711.8625

siesta: Program's energy decomposition (eV):
siesta: Ebs     =      -223.719197
siesta: Eions   =      1181.000621
siesta: Ena     =       260.644514
siesta: Ekin    =       499.088678
siesta: Enl     =       -53.915174
siesta: Eso     =         0.000000
siesta: Edftu   =         0.000000
siesta: DEna    =       -17.718639
siesta: DUscf   =         1.643893
siesta: DUext   =         0.000000
siesta: Ex      =      -202.452906
siesta: Ec      =       -18.152191
siesta: Exc     =      -220.605098
siesta: EbV     =         0.000000
siesta: eta*DQ  =         0.000000
siesta: Emadel  =         0.000000
siesta: Emeta   =         0.000000
siesta: Emolmec =         0.000000
siesta: Ekinion =         0.000000
siesta: Eharris =      -711.862446
siesta: Etot    =      -711.862446
siesta: FreeEng =      -711.862531

siesta: Final energy (eV):
siesta:  Band Struct. =    -223.719197
siesta:       Kinetic =     499.088678
siesta:       Hartree =     311.231113
siesta:         Edftu =       0.000000
siesta:       Eso     =       0.000000
siesta:    Ext. field =       0.000000
siesta:         Exch. =    -202.452906
siesta:         Corr. =     -18.152191
siesta:     Bulk bias =       0.000000
siesta:   Exch.-corr. =    -220.605098
siesta:  Ion-electron =   -1100.730189
siesta:       Ion-ion =    -200.846951
siesta:       Ekinion =       0.000000
siesta: D3 dispersion =       0.000000
siesta:         Total =    -711.862446
siesta:         Fermi =      -7.029188

siesta: Atomic forces (eV/Ang):
siesta:      1  -25.897405   40.367670  -20.902556
siesta:      2   -3.894515    6.566026   -5.173548
siesta:      3   29.792351  -46.932776   26.076083
siesta: ----------------------------------------
siesta:    Tot    0.000431    0.000920   -0.000021

siesta: Stress tensor (static) (eV/Ang**3):
siesta:    -0.337540    0.554953   -0.328154
siesta:     0.554953   -0.793848    0.519040
siesta:    -0.328154    0.519041   -0.282977

siesta: Cell volume =         46.655611 Ang**3

siesta: Pressure (static):
siesta:                Solid            Molecule  Units
siesta:           0.00513479          0.01431531  Ry/Bohr**3
siesta:           0.47145486          1.31437149  eV/Ang**3
siesta:         755.35396253       2105.85528266  kBar
(Free)E+ p_basis*V_orbitals  =        -710.715136
(Free)Eharris+ p_basis*V_orbitals  =        -710.715136

cite: Please see "aiida.bib" for an exhaustive BiBTeX file.
cite: Please clearly indicate Siesta version in published work: NO_VERSION_LABEL_AVAILABLE
cite: This calculation has made use of the following articles
cite: which are encouraged to be cited in a published work.
        Primary SIESTA paper
          DOI: www.doi.org/10.1088/0953-8984/14/11/302


             Section          Calls    Walltime       %
 global_section                   1      30.088  100.00
  siesta                          1      30.088  100.00
   Setup                          1       0.167    0.55
    bands                         1       0.000    0.00
    KSV_init                      1       0.000    0.00
   IterGeom                       1      29.904   99.39
    geom_init                     1       0.695    2.31
     state_init                   1       0.043    0.14
      hsparse                     1       0.000    0.00
      overlap                     1       0.020    0.07
     Setup_H0                     1       0.612    2.03
      naefs                       1       0.000    0.00
      MolMec                      1       0.000    0.00
      kinefsm                     1       0.016    0.05
      nlefsm                      1       0.185    0.62
      DHSCF_Init                  1       0.410    1.36
       DHSCF1                     1       0.030    0.10
        INITMESH                  1       0.000    0.00
       DHSCF2                     1       0.380    1.26
        REMESH                    1       0.241    0.80
         INITMESH                 2       0.217    0.72
          SPLOAD                  2       0.217    0.72
        REORD                     2       0.000    0.00
        PHION                     1       0.082    0.27
        COMM_BSC                  1       0.000    0.00
        POISON                    1       0.001    0.00
         fft                      2       0.001    0.00
     setup_H                      1       0.040    0.13
      DHSCF                       1       0.040    0.13
       DHSCF3                     1       0.040    0.13
        rhoofd                    1       0.013    0.04
        COMM_BSC                  2       0.006    0.02
        POISON                    1       0.001    0.00
         fft                      2       0.001    0.00
        XC                        1       0.008    0.03
         COMM_BSC                 2       0.000    0.00
         GXC-CellXC               1       0.008    0.03
          gridxc@cellXC           1       0.008    0.03
        vmat                      1       0.013    0.04
    IterSCF                      16      29.121   96.79
     compute_dm                  16      28.686   95.34
      diagon                     16      28.685   95.34
       c-eigval                4736      13.937   46.32
        c-buildHS              4736       0.075    0.25
        cdiag                  4736      13.859   46.06
         cdiag1                4736       1.282    4.26
         cdiag2                4736       2.920    9.71
         cdiag3                4736       9.361   31.11
       c-eigvec                4736      14.537   48.31
        cdiag                  4736      14.461   48.06
         cdiag1                4736       1.279    4.25
         cdiag2                4736       2.924    9.72
         cdiag3                4736       9.369   31.14
         cdiag4                4736       0.537    1.78
       c-buildD                4736       0.180    0.60
     setup_H                     16       0.424    1.41
      DHSCF                      16       0.424    1.41
       DHSCF3                    16       0.424    1.41
        rhoofd                   16       0.173    0.58
        COMM_BSC                 32       0.020    0.07
        POISON                   16       0.018    0.06
         fft                     32       0.017    0.06
        XC                       16       0.090    0.30
         COMM_BSC                32       0.002    0.01
         GXC-CellXC              16       0.088    0.29
          gridxc@cellXC          16       0.088    0.29
        vmat                     16       0.122    0.41
     MIXER                       15       0.001    0.00
    PostSCF                       1       0.087    0.29
     naefs                        1       0.000    0.00
     kinefsm                      1       0.000    0.00
     nlefsm                       1       0.003    0.01
     DHSCF                        1       0.066    0.22
      DHSCF3                      1       0.023    0.07
       rhoofd                     1       0.010    0.03
       COMM_BSC                   2       0.001    0.00
       POISON                     1       0.001    0.00
        fft                       2       0.001    0.00
       XC                         1       0.004    0.01
        COMM_BSC                  2       0.000    0.00
        GXC-CellXC                1       0.004    0.01
         gridxc@cellXC            1       0.004    0.01
       vmat                       1       0.007    0.02
      DHSCF4                      1       0.043    0.14
       REORD                     10       0.000    0.00
       COMM_BSC                   2       0.000    0.00
       dfscf                      1       0.032    0.11
     overfsm                      1       0.000    0.00
     MolMec                       1       0.000    0.00
     writeHSX                     1       0.001    0.00
    state_analysis                1       0.000    0.00
    siesta_move                   1       0.000    0.00
   Analysis                       1       0.017    0.06
    optical                       1       0.000    0.00

>> End of run:  13-APR-2024  13:58:46
Job completed
