Siesta Version  : NO_VERSION_LABEL_AVAILABLE
Architecture    : ----
Compiler version: GNU-11.4.0
Compiler flags  : -fallow-argument-mismatch;-O3 -march=native
PP flags        : ----
Libraries       : ----
Parallelisations: MPI

Runtime information:
* Directory : /home/ICN2/jgarridoa/aiida_run/9e/76/0479-fc32-4fea-97cb-61ae7d687856
* Running on 24 nodes in parallel.
>> Start of run:  13-APR-2024  13:41:02

                           *********************** 
                           *  WELCOME TO SIESTA  * 
                           *********************** 

reinit: Reading from standard input
reinit: Dumping input in INPUT_TMP.80103
************************** Dump of input data file ****************************
atomiccoordinatesformat Ang
cdfsave True
dminitspinaf False
dmmixingweight 0.025
dmmixscf1 True
dmnumberpulay 10
dmtolerance 1e-05
electronictemperature 50.000 K
geometrymustconverge T
latticeconstant 1.0 Ang
maxscfiterations 1000
meshcutoff 400 Ry
noncollinearspin False
numberofatoms 2
numberofspecies 1
savehs True
solutionmethod diagon
spinorbit False
spinpolarized False
systemlabel aiida
systemname aiida
usetreetimer T
writedmhsnetcdf True
writeorbmom True
xcauthors PBEsol
xcfunctional GGA
xmlwrite T
#
# -- Basis Set Info follows
#
PAO-BasisSize DZP
PAO-SplitNorm 0.15
PAO-EnergyShift 0.005 Ry
#
# -- Structural Info follows
#
%block chemicalspecieslabel
    1     7      N
%endblock chemicalspecieslabel
%block lattice-vectors
      3.5999900000       0.0000000000       0.0000000000
      0.0000000000       3.5999900000       0.0000000000
      0.0000000000       0.0000000000       3.5999900000
%endblock lattice-vectors
%block atomiccoordinatesandatomicspecies
      0.0000000000       0.0000000000       3.5477541451    1      N      1
      0.0000000000       0.0000000000       2.2327497979    1      N      2
%endblock atomiccoordinatesandatomicspecies
#
# -- K-points Info follows
#
%block kgrid_monkhorst_pack
     6      0      0       0.0000000000
     0      6      0       0.0000000000
     0      0      6       0.0000000000
%endblock kgrid_monkhorst_pack
#
# -- Max wall-clock time block
#
maxwalltime 7200000
************************** End of input data file *****************************

reinit: -----------------------------------------------------------------------
reinit: System Name: aiida
reinit: -----------------------------------------------------------------------
reinit: System Label: aiida
reinit: -----------------------------------------------------------------------

initatom: Reading input for the pseudopotentials and atomic orbitals ----------
Species number:   1 Atomic number:    7 Label: N


---- Processing specs for species: N
Ground state valence configuration:   2s02  2p03
Reading pseudopotential information in PSML from:
  N.psml
PSML file version: 1.1
Using libxc ids:  116 133
GGA--PBEsol XC_GGA_X_PBE_SOL--XC_GGA_C_PBE_SOL ps
PSML uuid: 56b43770-1d5f-11e8-525f-e1e3c77dc801

---- Pseudopotential check for N 

Pseudized shells:
2s( 2.00) rc: 1.21
2p( 3.00) rc: 1.36
Valence configuration for ps generation: 2s:2p: Total charge:   5.000000
For N, standard SIESTA heuristics set lmxkb to 3
 (one more than the basis l, including polarization orbitals).
Use PS.lmax or PS.KBprojectors blocks to override.
N pseudopotential only contains V_ls up to l=1 -- lmxkb reset.

<basis_specs>
===============================================================================
N                    Z=   7    Mass=  14.007        Charge= 0.17977+309
Lmxo=2 Lmxkb= 1    BasisType=split      Semic=F
L=0  Nsemic=0  Cnfigmx=2
          i=1  nzeta=2  polorb=0  (2s)
            splnorm:   0.15000    
               vcte:    40.000    
               rinn:  -0.90000    
               qcoe:    0.0000    
               qyuk:    0.0000    
               qwid:   0.10000E-01
                rcs:    0.0000      0.0000    
            lambdas:    1.0000      1.0000    
L=1  Nsemic=0  Cnfigmx=2
          i=1  nzeta=2  polorb=1  (2p)  (to be polarized perturbatively)
            splnorm:   0.15000    
               vcte:    40.000    
               rinn:  -0.90000    
               qcoe:    0.0000    
               qyuk:    0.0000    
               qwid:   0.10000E-01
                rcs:    0.0000      0.0000    
            lambdas:    1.0000      1.0000    
L=2  Nsemic=0  Cnfigmx=3
          i=1  nzeta=0  polorb=0  (3d)  (perturbative polarization orbital) (from 2p)
-------------------------------------------------------------------------------
L=0  Nkbl=1  erefs: 0.17977+309
L=1  Nkbl=1  erefs: 0.17977+309
===============================================================================
</basis_specs>

Using PAO.SplitTailNorm
atom: Called for N                     (Z =   7)
NOTE: N pseudopotential has channels up to l= 1
NOTE: PAOs with higher l will be generated with V_local
Maximum radius (at nrval) set to   50.00000 8518

read_vps: Pseudopotential generation method:
read_vps: ONCVPSP-3.Hamann's oncvpsp                        
Valence charge in pseudo generation:    5.00000

read_vps: Pseudopotential includes a core correction:
read_vps: Pseudo-core for xc-correction

xc_check: Exchange-correlation functional:
xc_check: GGA PBEsol
Got Vlocal (oncv-fit) from psml data
Choosing vlocal chloc cutoff:  6.038618
qtot up to nchloc:    4.99997633
atom: Maximum radius for chlocal:    6.03862
atom: Maximum radius for r*vlocal+2*Zval:    6.03862
Reading KB projs from N psml data
Using scalar-relativistic projectors in PSML file

PSML: Kleinman-Bylander projectors: 
   l= 0   rc=  1.214864   Ekb= 14.928379
   l= 0   rc=  1.221004   Ekb=  1.251736
   l= 1   rc=  1.375180   Ekb= -8.619428
   l= 1   rc=  1.375180   Ekb= -2.025883

PSML: Total number of  Kleinman-Bylander projectors:   8
atom: -------------------------------------------------------------------------

atom: SANKEY-TYPE ORBITALS:
atom: Selected multiple-zeta basis: split     

SPLIT: Orbitals with angular momentum L= 0

SPLIT: Basis orbitals for state 2s

SPLIT: PAO cut-off radius determined from an
SPLIT: energy shift=  0.005000 Ry
Split based on tail norm

   izeta = 1
                 lambda =    1.000000
                     rc =    4.265195
                 energy =   -1.350827
                kinetic =    1.238925
    potential(screened) =   -2.589752
       potential(ionic) =   -8.091187

   izeta = 2
                 rmatch =    2.696970
              splitnorm =    0.150000
                 energy =   -1.041987
                kinetic =    2.172223
    potential(screened) =   -3.214210
       potential(ionic) =   -9.191634

SPLIT: Orbitals with angular momentum L= 1

SPLIT: Basis orbitals for state 2p

SPLIT: PAO cut-off radius determined from an
SPLIT: energy shift=  0.005000 Ry
Split based on tail norm

   izeta = 1
                 lambda =    1.000000
                     rc =    5.253677
                 energy =   -0.511511
                kinetic =    3.468518
    potential(screened) =   -3.980029
       potential(ionic) =   -9.293867

   izeta = 2
                 rmatch =    3.312873
              splitnorm =    0.150000
                 energy =   -0.376057
                kinetic =    4.835938
    potential(screened) =   -5.211995
       potential(ionic) =  -11.044105
*Note: V_local used for l= 2

** Using vlocal for PAOs with L= 2

POLgen: Perturbative polarization orbital with L=  2

POLgen: Polarization orbital for state 2p
*Note: V_local used for lpol= 2

** Using vlocal for PAOs with L= 2
Split based on tail norm

   izeta = 1
                     rc =    5.253677
                 energy =    1.558482
                kinetic =    2.921564
    potential(screened) =   -1.363082
       potential(ionic) =   -5.578203
atom: Total number of Sankey-type orbitals: 13

atm_pop: Valence configuration (for local Pseudopot. screening):
 2s( 2.00)                                                            
 2p( 3.00)                                                            
 3d( 0.00)                                                            
Vna: chval, zval:    5.00000   5.00000

Vna:  Cut-off radius for the neutral-atom potential:   5.253677
comcore: Pseudo-core radius Rcore=  1.572221

atom: _________________________________________________________________________

prinput: Basis input 

PAO.BasisType split     

%block ChemicalSpeciesLabel
    1    7 N                       # Species index, atomic number, species label
%endblock ChemicalSpeciesLabel

%block PAO.Basis                 # Define Basis set
# WARNING: This information might be incomplete!
N                     2                    # Species label, number of l-shells
 n=2   0   2                         # n, l, Nzeta 
   4.265      2.697   
   1.000      1.000   
 n=2   1   2 P   1                   # n, l, Nzeta, Polarization, NzetaPol
   5.254      3.313   
   1.000      1.000   
%endblock PAO.Basis

prinput: ----------------------------------------------------------------------

coor:   Atomic-coordinates input format  =     Cartesian coordinates
coor:                                          (in Angstroms)

siesta: Atomic coordinates (Bohr) and species
siesta:      0.00000   0.00000   6.70428  1        1
siesta:      0.00000   0.00000   4.21929  1        2

siesta: System type = bulk      

initatomlists: Number of atoms, orbitals, and projectors:      2    26    16

siesta: ******************** Simulation parameters ****************************
siesta:
siesta: The following are some of the parameters of the simulation.
siesta: A complete list of the parameters used, including default values,
siesta: can be found in file out.fdf
siesta:
redata: Spin configuration                          = none
redata: Number of spin components                   = 1
redata: Time-Reversal Symmetry                      = T
redata: Spin spiral                                 = F
redata: Long output                                 =   F
redata: Number of Atomic Species                    =        1
redata: Charge density info will appear in .RHO file
redata: Write Mulliken Pop.                         = NO
redata: Matel table size (NRTAB)                    =     1024
redata: Mesh Cutoff                                 =   400.0000 Ry
redata: Net charge of the system                    =     0.0000 |e|
redata: Min. number of SCF Iter                     =        0
redata: Max. number of SCF Iter                     =     1000
redata: SCF convergence failure will abort job
redata: SCF mix quantity                            = Hamiltonian
redata: Mix DM or H after convergence               =   F
redata: Recompute H after scf cycle                 =   F
redata: Mix DM in first SCF step                    =   T
redata: Write Pulay info on disk                    =   F
redata: New DM Occupancy tolerance                  = 0.000000000001
redata: No kicks to SCF
redata: DM Mixing Weight for Kicks                  =     0.5000
redata: Require Harris convergence for SCF          =   F
redata: Harris energy tolerance for SCF             =     0.000100 eV
redata: Require DM convergence for SCF              =   T
redata: DM tolerance for SCF                        =     0.000010
redata: Require EDM convergence for SCF             =   F
redata: EDM tolerance for SCF                       =     0.001000 eV
redata: Require H convergence for SCF               =   T
redata: Hamiltonian tolerance for SCF               =     0.001000 eV
redata: Require (free) Energy convergence for SCF   =   F
redata: (free) Energy tolerance for SCF             =     0.000100 eV
redata: Using DFT-D3 dispersion                     =   F
redata: Using Saved Data (generic)                  =   F
redata: Use continuation files for DM               =   T
redata: Neglect nonoverlap interactions             =   F
redata: Method of Calculation                       = Diagonalization
redata: Electronic Temperature                      =    50.0000 K
redata: Fix the spin of the system                  =   F
redata: Max. number of TDED Iter                    =        1
redata: Number of TDED substeps                     =        3
redata: Dynamics option                             = Single-point calculation
mix.SCF: Pulay mixing                            = Pulay
mix.SCF:    Variant                              = stable
mix.SCF:    History steps                        = 10
mix.SCF:    Linear mixing weight                 =     0.025000
mix.SCF:    Mixing weight                        =     0.025000
mix.SCF:    SVD condition                        = 0.1000E-07
redata: ***********************************************************************

%block SCF.Mixers
  Pulay
%endblock SCF.Mixers

%block SCF.Mixer.Pulay
  # Mixing method
  method pulay
  variant stable

  # Mixing options
  weight 0.0250
  weight.linear 0.0250
  history 10
%endblock SCF.Mixer.Pulay

DM_history_depth set to one: no extrapolation allowed by default for geometry relaxation
Size of DM history Fstack: 1
Total number of electrons:    10.000000
Total ionic charge:    10.000000

* ProcessorY, Blocksize:    6   1


* Orbital distribution balance (max,min):     2     1

k-point displ. along   1 input, could be:     0.00    0.50
k-point displ. along   2 input, could be:     0.00    0.50
k-point displ. along   3 input, could be:     0.00    0.50
 Kpoints in:          144 . Kpoints trimmed:          132

siesta: k-grid: Number of k-points = 132
siesta: k-points from Monkhorst-Pack grid
siesta: k-cutoff (effective) =    10.800 Ang
siesta: k-point supercell and displacements
siesta: k-grid:     6     0     0      0.000
siesta: k-grid:     0     6     0      0.000
siesta: k-grid:     0     0     6      0.000

diag: Algorithm                                     = D&C
diag: Parallel over k                               =   F
diag: Use parallel 2D distribution                  =   T
diag: Parallel block-size                           = 1
diag: Parallel distribution                         =     4 x     6
diag: Used triangular part                          = Lower
diag: Absolute tolerance                            =  0.100E-15
diag: Orthogonalization factor                      =  0.100E-05
diag: Memory factor                                 =  1.0000

superc: Internal auxiliary supercell:     3 x     3 x     3  =      27
superc: Number of atoms, orbitals, and projectors:     54    702    432


ts: **************************************************************
ts: Save H and S matrices                           =    F
ts: Save DM and EDM matrices                        =    F
ts: Only save the overlap matrix S                  =    F
ts: **************************************************************

************************ Begin: TS CHECKS AND WARNINGS ************************
************************ End: TS CHECKS AND WARNINGS **************************


                     ====================================
                        Single-point calculation
                     ====================================

superc: Internal auxiliary supercell:     3 x     3 x     3  =      27
superc: Number of atoms, orbitals, and projectors:     54    702    432

outcell: Unit cell vectors (Ang):
        3.599990    0.000000    0.000000
        0.000000    3.599990    0.000000
        0.000000    0.000000    3.599990

outcell: Cell vector modules (Ang)   :    3.599990    3.599990    3.599990
outcell: Cell angles (23,13,12) (deg):     90.0000     90.0000     90.0000
outcell: Cell volume (Ang**3)        :     46.6556
<dSpData1D:S at geom step 0
  <sparsity:sparsity for geom step 0
    nrows_g=26 nrows=2 sparsity=.8328 nnzs=563, refcount: 7>
  <dData1D:(new from dSpData1D) n=563, refcount: 1>
refcount: 1>
new_DM -- step:     1
Initializing Density Matrix...

Attempting to read DM from file... Failed...
DM filled with atomic data:
<dSpData2D:DM initialized from atoms
  <sparsity:sparsity for geom step 0
    nrows_g=26 nrows=2 sparsity=.8328 nnzs=563, refcount: 8>
  <dData2D:DM n=563 m=1, refcount: 1>
refcount: 1>
No. of atoms with KB's overlaping orbs in proc 0. Max # of overlaps:       4      38

InitMesh: MESH = 48 x 48 x 48 = 110592
InitMesh: Mesh cutoff (required, used) =   400.000   491.340 Ry
New grid distribution [1]: sub = 2
New grid distribution [2]: sub = 2
New grid distribution [3]: sub = 2
Setting up quadratic distribution...

stepf: Fermi-Dirac step function

siesta: Program's energy decomposition (eV):
siesta: Ebs     =      -135.938100
siesta: Eions   =       898.658445
siesta: Ena     =       182.432263
siesta: Ekin    =       345.357521
siesta: Enl     =       -37.104883
siesta: Eso     =         0.000000
siesta: Edftu   =         0.000000
siesta: DEna    =         2.653406
siesta: DUscf   =         0.438598
siesta: DUext   =         0.000000
siesta: Ex      =      -142.101018
siesta: Ec      =       -12.285849
siesta: Exc     =      -154.386868
siesta: EbV     =         0.000000
siesta: eta*DQ  =         0.000000
siesta: Emadel  =         0.000000
siesta: Emeta   =         0.000000
siesta: Emolmec =         0.000000
siesta: Ekinion =         0.000000
siesta: Eharris =      -564.255135
siesta: Etot    =      -559.268407
siesta: FreeEng =      -559.268407

        iscf     Eharris(eV)        E_KS(eV)     FreeEng(eV)     dDmax    Ef(eV) dHmax(eV)
   scf:    1     -564.255135     -559.268407     -559.268407  0.689005 -5.125994  0.654772
             Section          Calls    Walltime % sect.
 IterSCF                          1       0.562  100.00
  compute_dm                      1       0.545   96.88
  setup_H                         1       0.017    3.01
  MIXER                           1       0.000    0.00
timer: Routine,Calls,Time,% = IterSCF        1       0.562  69.29
   scf:    2     -559.275840     -559.272137     -559.272137  0.000895 -5.131170  0.627318
   scf:    3     -559.347087     -559.316806     -559.316806  0.020972 -5.249957  0.164162
   scf:    4     -559.317533     -559.317216     -559.317216  0.005514 -5.126373  0.060166
   scf:    5     -559.317535     -559.317488     -559.317488  0.002426 -5.164289  0.024117
   scf:    6     -559.317567     -559.317538     -559.317538  0.001296 -5.148958  0.002781
mix: Pulay -- inversion failed, > SVD [rank/size] 3 / 5
   scf:    7     -559.317539     -559.317539     -559.317539  0.000089 -5.150795  0.000485
mix: Pulay -- inversion failed, > SVD [rank/size] 3 / 6
   scf:    8     -559.317539     -559.317539     -559.317539  0.000002 -5.150788  0.000471

SCF Convergence by DM+H criterion
max |DM_out - DM_in|         :     0.0000018601
max |H_out - H_in|      (eV) :     0.0004714192
SCF cycle converged after 8 iterations

Using DM_out to compute the final energy and forces
No. of atoms with KB's overlaping orbs in proc 0. Max # of overlaps:       4      38

siesta: E_KS(eV) =             -559.3175

siesta: E_KS - E_eggbox =      -559.3175

siesta: Atomic forces (eV/Ang):
----------------------------------------
   Tot   -0.000000    0.000000    0.000233
----------------------------------------
   Max   14.380226
   Res    8.302360    sqrt( Sum f_i^2 / 3N )
----------------------------------------
   Max   14.380226    constrained

Stress tensor Voigt[x,y,z,yz,xz,xy] (kbar):        7.89        7.89      433.17       -0.00       -0.00        0.00
(Free)E + p*V (eV/cell)     -563.6754
Target enthalpy (eV/cell)     -559.3175

siesta: Program's energy decomposition (eV):
siesta: Ebs     =      -135.778325
siesta: Eions   =       898.658445
siesta: Ena     =       182.432263
siesta: Ekin    =       344.602826
siesta: Enl     =       -36.468193
siesta: Eso     =         0.000000
siesta: Edftu   =         0.000000
siesta: DEna    =         2.777329
siesta: DUscf   =         0.315591
siesta: DUext   =         0.000000
siesta: Ex      =      -142.027044
siesta: Ec      =       -12.291866
siesta: Exc     =      -154.318910
siesta: EbV     =         0.000000
siesta: eta*DQ  =         0.000000
siesta: Emadel  =         0.000000
siesta: Emeta   =         0.000000
siesta: Emolmec =         0.000000
siesta: Ekinion =         0.000000
siesta: Eharris =      -559.317539
siesta: Etot    =      -559.317539
siesta: FreeEng =      -559.317539

siesta: Final energy (eV):
siesta:  Band Struct. =    -135.778325
siesta:       Kinetic =     344.602826
siesta:       Hartree =     222.438628
siesta:         Edftu =       0.000000
siesta:       Eso     =       0.000000
siesta:    Ext. field =       0.000000
siesta:         Exch. =    -142.027044
siesta:         Corr. =     -12.291866
siesta:     Bulk bias =       0.000000
siesta:   Exch.-corr. =    -154.318910
siesta:  Ion-electron =    -754.926266
siesta:       Ion-ion =    -217.113817
siesta:       Ekinion =       0.000000
siesta: D3 dispersion =       0.000000
siesta:         Total =    -559.317539
siesta:         Fermi =      -5.150788

siesta: Atomic forces (eV/Ang):
siesta:      1    0.000000    0.000000  -14.379993
siesta:      2   -0.000000    0.000000   14.380226
siesta: ----------------------------------------
siesta:    Tot   -0.000000    0.000000    0.000233

siesta: Stress tensor (static) (eV/Ang**3):
siesta:     0.004927    0.000000   -0.000000
siesta:     0.000000    0.004927   -0.000000
siesta:    -0.000000   -0.000000    0.270362

siesta: Cell volume =         46.655611 Ang**3

siesta: Pressure (static):
siesta:                Solid            Molecule  Units
siesta:          -0.00101731          0.00045414  Ry/Bohr**3
siesta:          -0.09340528          0.04169749  eV/Ang**3
siesta:        -149.65175173         66.80674883  kBar
(Free)E+ p_basis*V_orbitals  =        -558.661122
(Free)Eharris+ p_basis*V_orbitals  =        -558.661122

cite: Please see "aiida.bib" for an exhaustive BiBTeX file.
cite: Please clearly indicate Siesta version in published work: NO_VERSION_LABEL_AVAILABLE
cite: This calculation has made use of the following articles
cite: which are encouraged to be cited in a published work.
        Primary SIESTA paper
          DOI: www.doi.org/10.1088/0953-8984/14/11/302


             Section          Calls    Walltime       %
 global_section                   1       4.553  100.00
  siesta                          1       4.553  100.00
   Setup                          1       0.069    1.51
    bands                         1       0.000    0.00
    KSV_init                      1       0.000    0.00
   IterGeom                       1       4.477   98.33
    geom_init                     1       0.180    3.96
     state_init                   1       0.015    0.34
      hsparse                     1       0.000    0.00
      overlap                     1       0.009    0.20
     Setup_H0                     1       0.145    3.19
      naefs                       1       0.000    0.01
      MolMec                      1       0.000    0.00
      kinefsm                     1       0.007    0.15
      nlefsm                      1       0.024    0.53
      DHSCF_Init                  1       0.114    2.51
       DHSCF1                     1       0.019    0.42
        INITMESH                  1       0.000    0.00
       DHSCF2                     1       0.095    2.08
        REMESH                    1       0.035    0.77
         INITMESH                 2       0.031    0.68
          SPLOAD                  2       0.031    0.68
        REORD                     2       0.000    0.00
        PHION                     1       0.020    0.43
        COMM_BSC                  1       0.000    0.00
        POISON                    1       0.001    0.02
         fft                      2       0.001    0.02
     setup_H                      1       0.020    0.43
      DHSCF                       1       0.019    0.43
       DHSCF3                     1       0.019    0.43
        rhoofd                    1       0.005    0.11
        COMM_BSC                  2       0.002    0.04
        POISON                    1       0.001    0.02
         fft                      2       0.001    0.02
        XC                        1       0.008    0.17
         COMM_BSC                 2       0.000    0.00
         GXC-CellXC               1       0.007    0.16
          gridxc@cellXC           1       0.007    0.16
        vmat                      1       0.004    0.09
    IterSCF                       8       4.258   93.52
     compute_dm                   8       4.149   91.11
      diagon                      8       4.148   91.11
       c-eigval                1056       2.036   44.71
        c-buildHS              1056       0.008    0.18
        cdiag                  1056       2.027   44.51
         cdiag1                1056       0.192    4.22
         cdiag2                1056       0.428    9.40
         cdiag3                1056       1.354   29.75
       c-eigvec                1056       2.089   45.88
        cdiag                  1056       2.080   45.69
         cdiag1                1056       0.190    4.17
         cdiag2                1056       0.425    9.34
         cdiag3                1056       1.351   29.68
         cdiag4                1056       0.066    1.44
       c-buildD                1056       0.023    0.50
     setup_H                      8       0.107    2.34
      DHSCF                       8       0.107    2.34
       DHSCF3                     8       0.107    2.34
        rhoofd                    8       0.027    0.58
        COMM_BSC                 16       0.004    0.08
        POISON                    8       0.010    0.21
         fft                     16       0.009    0.21
        XC                        8       0.046    1.01
         COMM_BSC                16       0.001    0.02
         GXC-CellXC               8       0.045    0.98
          gridxc@cellXC           8       0.045    0.98
        vmat                      8       0.020    0.44
     MIXER                        7       0.000    0.01
    PostSCF                       1       0.038    0.84
     naefs                        1       0.000    0.00
     kinefsm                      1       0.000    0.00
     nlefsm                       1       0.000    0.01
     DHSCF                        1       0.031    0.68
      DHSCF3                      1       0.013    0.29
       rhoofd                     1       0.003    0.07
       COMM_BSC                   2       0.000    0.00
       POISON                     1       0.002    0.04
        fft                       2       0.002    0.04
       XC                         1       0.006    0.12
        COMM_BSC                  2       0.000    0.00
        GXC-CellXC                1       0.005    0.12
         gridxc@cellXC            1       0.005    0.12
       vmat                       1       0.002    0.05
      DHSCF4                      1       0.018    0.39
       REORD                     10       0.000    0.00
       COMM_BSC                   2       0.001    0.03
       dfscf                      1       0.014    0.30
     overfsm                      1       0.000    0.00
     MolMec                       1       0.000    0.00
     writeHSX                     1       0.000    0.01
    state_analysis                1       0.001    0.01
    siesta_move                   1       0.000    0.00
   Analysis                       1       0.006    0.14
    optical                       1       0.000    0.00

>> End of run:  13-APR-2024  13:41:06
Job completed
