Siesta Version  : NO_VERSION_LABEL_AVAILABLE
Architecture    : ----
Compiler version: GNU-11.4.0
Compiler flags  : -fallow-argument-mismatch;-O3 -march=native
PP flags        : ----
Libraries       : ----
Parallelisations: MPI

Runtime information:
* Directory : /home/ICN2/jgarridoa/aiida_run/45/cd/c87c-366d-47e9-8387-1e8a297bb06e
* Running on 24 nodes in parallel.
>> Start of run:  22-APR-2024   2:14:55

                           *********************** 
                           *  WELCOME TO SIESTA  * 
                           *********************** 

reinit: Reading from standard input
reinit: Dumping input in INPUT_TMP.29602
************************** Dump of input data file ****************************
atomiccoordinatesformat Ang
cdfsave True
dminitspinaf False
dmmixingweight 0.025
dmmixscf1 True
dmnumberpulay 10
dmtolerance 1e-05
electronictemperature 50.000 K
geometrymustconverge T
latticeconstant 1.0 Ang
maxscfiterations 1000
meshcutoff 400 Ry
noncollinearspin False
numberofatoms 2
numberofspecies 2
savehs True
solutionmethod diagon
spinorbit False
spinpolarized False
systemlabel aiida
systemname aiida
usetreetimer T
writedmhsnetcdf True
writeorbmom True
xcauthors PBEsol
xcfunctional GGA
xmlwrite T
#
# -- Basis Set Info follows
#
PAO-BasisSize DZP
PAO-SplitNorm 0.15
PAO-EnergyShift 0.005 Ry
#
# -- Structural Info follows
#
%block chemicalspecieslabel
    1     7      N
    2     5      B
%endblock chemicalspecieslabel
%block lattice-vectors
      3.5999900000       0.0000000000       0.0000000000
      0.0000000000       3.5999900000       0.0000000000
      0.0000000000       0.0000000000       3.5999900000
%endblock lattice-vectors
%block atomiccoordinatesandatomicspecies
      0.0000000000       0.0000000000       3.3314667459    1      N      1
      0.0000000000       0.0000000000       0.6665021486    2      B      2
%endblock atomiccoordinatesandatomicspecies
#
# -- K-points Info follows
#
%block kgrid_monkhorst_pack
     6      0      0       0.0000000000
     0      6      0       0.0000000000
     0      0      6       0.0000000000
%endblock kgrid_monkhorst_pack
#
# -- Max wall-clock time block
#
maxwalltime 7200000
************************** End of input data file *****************************

reinit: -----------------------------------------------------------------------
reinit: System Name: aiida
reinit: -----------------------------------------------------------------------
reinit: System Label: aiida
reinit: -----------------------------------------------------------------------

initatom: Reading input for the pseudopotentials and atomic orbitals ----------
Species number:   1 Atomic number:    7 Label: N
Species number:   2 Atomic number:    5 Label: B


---- Processing specs for species: N
Ground state valence configuration:   2s02  2p03
Reading pseudopotential information in PSML from:
  N.psml
PSML file version: 1.1
Using libxc ids:  116 133
GGA--PBEsol XC_GGA_X_PBE_SOL--XC_GGA_C_PBE_SOL ps
PSML uuid: 56b43770-1d5f-11e8-525f-e1e3c77dc801

---- Processing specs for species: B
Ground state valence configuration:   2s02  2p01
Reading pseudopotential information in PSML from:
  B.psml
PSML file version: 1.1
Using libxc ids:  116 133
GGA--PBEsol XC_GGA_X_PBE_SOL--XC_GGA_C_PBE_SOL ps
PSML uuid: 4c4355a0-1d5f-11e8-6182-f22cff9f01b0

---- Pseudopotential check for N 

Pseudized shells:
2s( 2.00) rc: 1.21
2p( 3.00) rc: 1.36
Valence configuration for ps generation: 2s:2p: Total charge:   5.000000

---- Pseudopotential check for B 

Pseudized shells:
2s( 2.00) rc: 1.21
2p( 1.00) rc: 1.21
Valence configuration for ps generation: 2s:2p: Total charge:   3.000000
For N, standard SIESTA heuristics set lmxkb to 3
 (one more than the basis l, including polarization orbitals).
Use PS.lmax or PS.KBprojectors blocks to override.
For B, standard SIESTA heuristics set lmxkb to 3
 (one more than the basis l, including polarization orbitals).
Use PS.lmax or PS.KBprojectors blocks to override.
N pseudopotential only contains V_ls up to l=1 -- lmxkb reset.
B pseudopotential only contains V_ls up to l=1 -- lmxkb reset.

<basis_specs>
===============================================================================
N                    Z=   7    Mass=  14.007        Charge= 0.17977+309
Lmxo=2 Lmxkb= 1    BasisType=split      Semic=F
L=0  Nsemic=0  Cnfigmx=2
          i=1  nzeta=2  polorb=0  (2s)
            splnorm:   0.15000    
               vcte:    40.000    
               rinn:  -0.90000    
               qcoe:    0.0000    
               qyuk:    0.0000    
               qwid:   0.10000E-01
                rcs:    0.0000      0.0000    
            lambdas:    1.0000      1.0000    
L=1  Nsemic=0  Cnfigmx=2
          i=1  nzeta=2  polorb=1  (2p)  (to be polarized perturbatively)
            splnorm:   0.15000    
               vcte:    40.000    
               rinn:  -0.90000    
               qcoe:    0.0000    
               qyuk:    0.0000    
               qwid:   0.10000E-01
                rcs:    0.0000      0.0000    
            lambdas:    1.0000      1.0000    
L=2  Nsemic=0  Cnfigmx=3
          i=1  nzeta=0  polorb=0  (3d)  (perturbative polarization orbital) (from 2p)
-------------------------------------------------------------------------------
L=0  Nkbl=1  erefs: 0.17977+309
L=1  Nkbl=1  erefs: 0.17977+309
===============================================================================
</basis_specs>

Using PAO.SplitTailNorm
atom: Called for N                     (Z =   7)
NOTE: N pseudopotential has channels up to l= 1
NOTE: PAOs with higher l will be generated with V_local
Maximum radius (at nrval) set to   50.00000 8518

read_vps: Pseudopotential generation method:
read_vps: ONCVPSP-3.Hamann's oncvpsp                        
Valence charge in pseudo generation:    5.00000

read_vps: Pseudopotential includes a core correction:
read_vps: Pseudo-core for xc-correction

xc_check: Exchange-correlation functional:
xc_check: GGA PBEsol
Got Vlocal (oncv-fit) from psml data
Choosing vlocal chloc cutoff:  6.038618
qtot up to nchloc:    4.99997633
atom: Maximum radius for chlocal:    6.03862
atom: Maximum radius for r*vlocal+2*Zval:    6.03862
Reading KB projs from N psml data
Using scalar-relativistic projectors in PSML file

PSML: Kleinman-Bylander projectors: 
   l= 0   rc=  1.214864   Ekb= 14.928379
   l= 0   rc=  1.221004   Ekb=  1.251736
   l= 1   rc=  1.375180   Ekb= -8.619428
   l= 1   rc=  1.375180   Ekb= -2.025883

PSML: Total number of  Kleinman-Bylander projectors:   8
atom: -------------------------------------------------------------------------

atom: SANKEY-TYPE ORBITALS:
atom: Selected multiple-zeta basis: split     

SPLIT: Orbitals with angular momentum L= 0

SPLIT: Basis orbitals for state 2s

SPLIT: PAO cut-off radius determined from an
SPLIT: energy shift=  0.005000 Ry
Split based on tail norm

   izeta = 1
                 lambda =    1.000000
                     rc =    4.265195
                 energy =   -1.350827
                kinetic =    1.238925
    potential(screened) =   -2.589752
       potential(ionic) =   -8.091187

   izeta = 2
                 rmatch =    2.696970
              splitnorm =    0.150000
                 energy =   -1.041987
                kinetic =    2.172223
    potential(screened) =   -3.214210
       potential(ionic) =   -9.191634

SPLIT: Orbitals with angular momentum L= 1

SPLIT: Basis orbitals for state 2p

SPLIT: PAO cut-off radius determined from an
SPLIT: energy shift=  0.005000 Ry
Split based on tail norm

   izeta = 1
                 lambda =    1.000000
                     rc =    5.253677
                 energy =   -0.511511
                kinetic =    3.468518
    potential(screened) =   -3.980029
       potential(ionic) =   -9.293867

   izeta = 2
                 rmatch =    3.312873
              splitnorm =    0.150000
                 energy =   -0.376057
                kinetic =    4.835938
    potential(screened) =   -5.211995
       potential(ionic) =  -11.044105
*Note: V_local used for l= 2

** Using vlocal for PAOs with L= 2

POLgen: Perturbative polarization orbital with L=  2

POLgen: Polarization orbital for state 2p
*Note: V_local used for lpol= 2

** Using vlocal for PAOs with L= 2
Split based on tail norm

   izeta = 1
                     rc =    5.253677
                 energy =    1.558482
                kinetic =    2.921564
    potential(screened) =   -1.363082
       potential(ionic) =   -5.578203
atom: Total number of Sankey-type orbitals: 13

atm_pop: Valence configuration (for local Pseudopot. screening):
 2s( 2.00)                                                            
 2p( 3.00)                                                            
 3d( 0.00)                                                            
Vna: chval, zval:    5.00000   5.00000

Vna:  Cut-off radius for the neutral-atom potential:   5.253677
comcore: Pseudo-core radius Rcore=  1.572221

atom: _________________________________________________________________________

<basis_specs>
===============================================================================
B                    Z=   5    Mass=  10.810        Charge= 0.17977+309
Lmxo=2 Lmxkb= 1    BasisType=split      Semic=F
L=0  Nsemic=0  Cnfigmx=2
          i=1  nzeta=2  polorb=0  (2s)
            splnorm:   0.15000    
               vcte:    40.000    
               rinn:  -0.90000    
               qcoe:    0.0000    
               qyuk:    0.0000    
               qwid:   0.10000E-01
                rcs:    0.0000      0.0000    
            lambdas:    1.0000      1.0000    
L=1  Nsemic=0  Cnfigmx=2
          i=1  nzeta=2  polorb=1  (2p)  (to be polarized perturbatively)
            splnorm:   0.15000    
               vcte:    40.000    
               rinn:  -0.90000    
               qcoe:    0.0000    
               qyuk:    0.0000    
               qwid:   0.10000E-01
                rcs:    0.0000      0.0000    
            lambdas:    1.0000      1.0000    
L=2  Nsemic=0  Cnfigmx=3
          i=1  nzeta=0  polorb=0  (3d)  (perturbative polarization orbital) (from 2p)
-------------------------------------------------------------------------------
L=0  Nkbl=1  erefs: 0.17977+309
L=1  Nkbl=1  erefs: 0.17977+309
===============================================================================
</basis_specs>

Using PAO.SplitTailNorm
atom: Called for B                     (Z =   5)
NOTE: B pseudopotential has channels up to l= 1
NOTE: PAOs with higher l will be generated with V_local
Maximum radius (at nrval) set to   50.00000 8518

read_vps: Pseudopotential generation method:
read_vps: ONCVPSP-3.Hamann's oncvpsp                        
Valence charge in pseudo generation:    3.00000

read_vps: Pseudopotential includes a core correction:
read_vps: Pseudo-core for xc-correction

xc_check: Exchange-correlation functional:
xc_check: GGA PBEsol
Got Vlocal (oncv-fit) from psml data
Choosing vlocal chloc cutoff:  3.201794
qtot up to nchloc:    3.00023194
atom: Maximum radius for chlocal:    3.20179
atom: Maximum radius for r*vlocal+2*Zval:    3.20179
Reading KB projs from B psml data
Using scalar-relativistic projectors in PSML file

PSML: Kleinman-Bylander projectors: 
   l= 0   rc=  1.223468   Ekb= 16.933205
   l= 0   rc=  1.223468   Ekb=  2.495260
   l= 1   rc=  1.223468   Ekb= -7.218359
   l= 1   rc=  1.223468   Ekb= -1.645242

PSML: Total number of  Kleinman-Bylander projectors:   8
atom: -------------------------------------------------------------------------

atom: SANKEY-TYPE ORBITALS:
atom: Selected multiple-zeta basis: split     

SPLIT: Orbitals with angular momentum L= 0

SPLIT: Basis orbitals for state 2s

SPLIT: PAO cut-off radius determined from an
SPLIT: energy shift=  0.005000 Ry
Split based on tail norm

   izeta = 1
                 lambda =    1.000000
                     rc =    5.714927
                 energy =   -0.682223
                kinetic =    0.604116
    potential(screened) =   -1.286339
       potential(ionic) =   -3.302390

   izeta = 2
                 rmatch =    3.823698
              splitnorm =    0.150000
                 energy =   -0.502064
                kinetic =    1.116406
    potential(screened) =   -1.618470
       potential(ionic) =   -3.792969

SPLIT: Orbitals with angular momentum L= 1

SPLIT: Basis orbitals for state 2p

SPLIT: PAO cut-off radius determined from an
SPLIT: energy shift=  0.005000 Ry
Split based on tail norm

   izeta = 1
                 lambda =    1.000000
                     rc =    7.066857
                 energy =   -0.255540
                kinetic =    1.512761
    potential(screened) =   -1.768301
       potential(ionic) =   -3.690166

   izeta = 2
                 rmatch =    4.748011
              splitnorm =    0.150000
                 energy =   -0.176810
                kinetic =    2.206388
    potential(screened) =   -2.383198
       potential(ionic) =   -4.488680
*Note: V_local used for l= 2

** Using vlocal for PAOs with L= 2

POLgen: Perturbative polarization orbital with L=  2

POLgen: Polarization orbital for state 2p
*Note: V_local used for lpol= 2

** Using vlocal for PAOs with L= 2
Split based on tail norm

   izeta = 1
                     rc =    7.066857
                 energy =    0.676401
                kinetic =    1.417761
    potential(screened) =   -0.741360
       potential(ionic) =   -2.355753
atom: Total number of Sankey-type orbitals: 13

atm_pop: Valence configuration (for local Pseudopot. screening):
 2s( 2.00)                                                            
 2p( 1.00)                                                            
 3d( 0.00)                                                            
Vna: chval, zval:    3.00000   3.00000

Vna:  Cut-off radius for the neutral-atom potential:   7.066857
comcore: Pseudo-core radius Rcore=  1.975419

atom: _________________________________________________________________________

prinput: Basis input 

PAO.BasisType split     

%block ChemicalSpeciesLabel
    1    7 N                       # Species index, atomic number, species label
    2    5 B                       # Species index, atomic number, species label
%endblock ChemicalSpeciesLabel

%block PAO.Basis                 # Define Basis set
# WARNING: This information might be incomplete!
N                     2                    # Species label, number of l-shells
 n=2   0   2                         # n, l, Nzeta 
   4.265      2.697   
   1.000      1.000   
 n=2   1   2 P   1                   # n, l, Nzeta, Polarization, NzetaPol
   5.254      3.313   
   1.000      1.000   
B                     2                    # Species label, number of l-shells
 n=2   0   2                         # n, l, Nzeta 
   5.715      3.824   
   1.000      1.000   
 n=2   1   2 P   1                   # n, l, Nzeta, Polarization, NzetaPol
   7.067      4.748   
   1.000      1.000   
%endblock PAO.Basis

prinput: ----------------------------------------------------------------------

coor:   Atomic-coordinates input format  =     Cartesian coordinates
coor:                                          (in Angstroms)

siesta: Atomic coordinates (Bohr) and species
siesta:      0.00000   0.00000   6.29556  1        1
siesta:      0.00000   0.00000   1.25951  2        2

siesta: System type = bulk      

initatomlists: Number of atoms, orbitals, and projectors:      2    26    16

siesta: ******************** Simulation parameters ****************************
siesta:
siesta: The following are some of the parameters of the simulation.
siesta: A complete list of the parameters used, including default values,
siesta: can be found in file out.fdf
siesta:
redata: Spin configuration                          = none
redata: Number of spin components                   = 1
redata: Time-Reversal Symmetry                      = T
redata: Spin spiral                                 = F
redata: Long output                                 =   F
redata: Number of Atomic Species                    =        2
redata: Charge density info will appear in .RHO file
redata: Write Mulliken Pop.                         = NO
redata: Matel table size (NRTAB)                    =     1024
redata: Mesh Cutoff                                 =   400.0000 Ry
redata: Net charge of the system                    =     0.0000 |e|
redata: Min. number of SCF Iter                     =        0
redata: Max. number of SCF Iter                     =     1000
redata: SCF convergence failure will abort job
redata: SCF mix quantity                            = Hamiltonian
redata: Mix DM or H after convergence               =   F
redata: Recompute H after scf cycle                 =   F
redata: Mix DM in first SCF step                    =   T
redata: Write Pulay info on disk                    =   F
redata: New DM Occupancy tolerance                  = 0.000000000001
redata: No kicks to SCF
redata: DM Mixing Weight for Kicks                  =     0.5000
redata: Require Harris convergence for SCF          =   F
redata: Harris energy tolerance for SCF             =     0.000100 eV
redata: Require DM convergence for SCF              =   T
redata: DM tolerance for SCF                        =     0.000010
redata: Require EDM convergence for SCF             =   F
redata: EDM tolerance for SCF                       =     0.001000 eV
redata: Require H convergence for SCF               =   T
redata: Hamiltonian tolerance for SCF               =     0.001000 eV
redata: Require (free) Energy convergence for SCF   =   F
redata: (free) Energy tolerance for SCF             =     0.000100 eV
redata: Using DFT-D3 dispersion                     =   F
redata: Using Saved Data (generic)                  =   F
redata: Use continuation files for DM               =   T
redata: Neglect nonoverlap interactions             =   F
redata: Method of Calculation                       = Diagonalization
redata: Electronic Temperature                      =    50.0000 K
redata: Fix the spin of the system                  =   F
redata: Max. number of TDED Iter                    =        1
redata: Number of TDED substeps                     =        3
redata: Dynamics option                             = Single-point calculation
mix.SCF: Pulay mixing                            = Pulay
mix.SCF:    Variant                              = stable
mix.SCF:    History steps                        = 10
mix.SCF:    Linear mixing weight                 =     0.025000
mix.SCF:    Mixing weight                        =     0.025000
mix.SCF:    SVD condition                        = 0.1000E-07
redata: ***********************************************************************

%block SCF.Mixers
  Pulay
%endblock SCF.Mixers

%block SCF.Mixer.Pulay
  # Mixing method
  method pulay
  variant stable

  # Mixing options
  weight 0.0250
  weight.linear 0.0250
  history 10
%endblock SCF.Mixer.Pulay

DM_history_depth set to one: no extrapolation allowed by default for geometry relaxation
Size of DM history Fstack: 1
Total number of electrons:     8.000000
Total ionic charge:     8.000000

* ProcessorY, Blocksize:    6   1


* Orbital distribution balance (max,min):     2     1

k-point displ. along   1 input, could be:     0.00    0.50
k-point displ. along   2 input, could be:     0.00    0.50
k-point displ. along   3 input, could be:     0.00    0.50
 Kpoints in:          144 . Kpoints trimmed:          132

siesta: k-grid: Number of k-points = 132
siesta: k-points from Monkhorst-Pack grid
siesta: k-cutoff (effective) =    10.800 Ang
siesta: k-point supercell and displacements
siesta: k-grid:     6     0     0      0.000
siesta: k-grid:     0     6     0      0.000
siesta: k-grid:     0     0     6      0.000

diag: Algorithm                                     = D&C
diag: Parallel over k                               =   F
diag: Use parallel 2D distribution                  =   T
diag: Parallel block-size                           = 1
diag: Parallel distribution                         =     4 x     6
diag: Used triangular part                          = Lower
diag: Absolute tolerance                            =  0.100E-15
diag: Orthogonalization factor                      =  0.100E-05
diag: Memory factor                                 =  1.0000

superc: Internal auxiliary supercell:     5 x     5 x     5  =     125
superc: Number of atoms, orbitals, and projectors:    250   3250   2000


ts: **************************************************************
ts: Save H and S matrices                           =    F
ts: Save DM and EDM matrices                        =    F
ts: Only save the overlap matrix S                  =    F
ts: **************************************************************

************************ Begin: TS CHECKS AND WARNINGS ************************
************************ End: TS CHECKS AND WARNINGS **************************


                     ====================================
                        Single-point calculation
                     ====================================

superc: Internal auxiliary supercell:     5 x     5 x     5  =     125
superc: Number of atoms, orbitals, and projectors:    250   3250   2000

outcell: Unit cell vectors (Ang):
        3.599990    0.000000    0.000000
        0.000000    3.599990    0.000000
        0.000000    0.000000    3.599990

outcell: Cell vector modules (Ang)   :    3.599990    3.599990    3.599990
outcell: Cell angles (23,13,12) (deg):     90.0000     90.0000     90.0000
outcell: Cell volume (Ang**3)        :     46.6556
<dSpData1D:S at geom step 0
  <sparsity:sparsity for geom step 0
    nrows_g=26 nrows=2 sparsity=1.4896 nnzs=1007, refcount: 7>
  <dData1D:(new from dSpData1D) n=1007, refcount: 1>
refcount: 1>
new_DM -- step:     1
Initializing Density Matrix...

Attempting to read DM from file... Failed...
DM filled with atomic data:
<dSpData2D:DM initialized from atoms
  <sparsity:sparsity for geom step 0
    nrows_g=26 nrows=2 sparsity=1.4896 nnzs=1007, refcount: 8>
  <dData2D:DM n=1007 m=1, refcount: 1>
refcount: 1>
No. of atoms with KB's overlaping orbs in proc 0. Max # of overlaps:      13      89

InitMesh: MESH = 48 x 48 x 48 = 110592
InitMesh: Mesh cutoff (required, used) =   400.000   491.340 Ry
New grid distribution [1]: sub = 2
New grid distribution [2]: sub = 2
New grid distribution [3]: sub = 2
Setting up quadratic distribution...

stepf: Fermi-Dirac step function

siesta: Program's energy decomposition (eV):
siesta: Ebs     =       -42.257382
siesta: Eions   =       610.591650
siesta: Ena     =       162.412915
siesta: Ekin    =       311.913509
siesta: Enl     =       -34.728336
siesta: Eso     =         0.000000
siesta: Edftu   =         0.000000
siesta: DEna    =       -55.580294
siesta: DUscf   =        15.798726
siesta: DUext   =         0.000000
siesta: Ex      =      -117.722779
siesta: Ec      =       -10.053786
siesta: Exc     =      -127.776565
siesta: EbV     =         0.000000
siesta: eta*DQ  =         0.000000
siesta: Emadel  =         0.000000
siesta: Emeta   =         0.000000
siesta: Emolmec =         0.000000
siesta: Ekinion =         0.000000
siesta: Eharris =      -327.331856
siesta: Etot    =      -338.551695
siesta: FreeEng =      -338.551695

        iscf     Eharris(eV)        E_KS(eV)     FreeEng(eV)     dDmax    Ef(eV) dHmax(eV)
   scf:    1     -327.331856     -338.551695     -338.551695  1.502440-11.162371 15.959111
             Section          Calls    Walltime % sect.
 IterSCF                          1       0.529  100.00
  compute_dm                      1       0.502   94.99
  setup_H                         1       0.026    4.88
  MIXER                           1       0.000    0.00
timer: Routine,Calls,Time,% = IterSCF        1       0.529  41.47
   scf:    2     -340.236799     -339.403911     -339.403911  0.041886-10.809787 14.940779
   scf:    3     -333.801214     -342.836562     -342.836562  1.279749 -8.351819  5.927598
   scf:    4     -321.256985     -333.427426     -333.427426  0.619314 -6.636239 14.379138
   scf:    5     -280.904003     -309.590488     -309.590488  0.456537 -3.933837 26.545744
   scf:    6     -360.713194     -342.644108     -342.644108  0.825502 -6.969491  9.337345
   scf:    7     -345.006300     -345.713407     -345.713407  0.737853 -8.248799  1.986311
   scf:    8     -345.473589     -345.600365     -345.600365  0.014576 -8.135805  2.372893
   scf:    9     -345.947161     -345.794609     -345.794609  0.069816 -7.896869  1.181416
   scf:   10     -345.598274     -345.820459     -345.820459  0.163336 -7.569764  1.421061
   scf:   11     -345.853230     -345.837309     -345.837309  0.007220 -7.580059  1.273159
   scf:   12     -345.891773     -345.889457     -345.889457  0.058768 -7.834081  0.084893
   scf:   13     -345.872690     -345.882472     -345.882472  0.016759 -7.891610  0.390193
   scf:   14     -345.891314     -345.890371     -345.890371  0.031511 -7.839303  0.026236
   scf:   15     -345.889727     -345.890199     -345.890199  0.006201 -7.855519  0.068898
   scf:   16     -345.890445     -345.890402     -345.890402  0.004283 -7.843848  0.001786
   scf:   17     -345.890402     -345.890402     -345.890402  0.000342 -7.844603  0.000275
   scf:   18     -345.890402     -345.890402     -345.890402  0.000007 -7.844584  0.000346

SCF Convergence by DM+H criterion
max |DM_out - DM_in|         :     0.0000066733
max |H_out - H_in|      (eV) :     0.0003460195
SCF cycle converged after 18 iterations

Using DM_out to compute the final energy and forces
No. of atoms with KB's overlaping orbs in proc 0. Max # of overlaps:      13      89

siesta: E_KS(eV) =             -345.8904

siesta: E_KS - E_eggbox =      -345.8904

siesta: Atomic forces (eV/Ang):
----------------------------------------
   Tot    0.000000    0.000000   -0.001278
----------------------------------------
   Max   77.637249
   Res   44.823518    sqrt( Sum f_i^2 / 3N )
----------------------------------------
   Max   77.637249    constrained

Stress tensor Voigt[x,y,z,yz,xz,xy] (kbar):        2.25        2.25    -2091.88       -0.00        0.00        0.00
(Free)E + p*V (eV/cell)     -325.6288
Target enthalpy (eV/cell)     -345.8904

siesta: Program's energy decomposition (eV):
siesta: Ebs     =      -103.830817
siesta: Eions   =       610.591650
siesta: Ena     =       162.412915
siesta: Ekin    =       257.214647
siesta: Enl     =       -21.487580
siesta: Eso     =         0.000000
siesta: Edftu   =         0.000000
siesta: DEna    =       -21.308722
siesta: DUscf   =         3.198439
siesta: DUext   =         0.000000
siesta: Ex      =      -105.637689
siesta: Ec      =        -9.690764
siesta: Exc     =      -115.328453
siesta: EbV     =         0.000000
siesta: eta*DQ  =         0.000000
siesta: Emadel  =         0.000000
siesta: Emeta   =         0.000000
siesta: Emolmec =         0.000000
siesta: Ekinion =         0.000000
siesta: Eharris =      -345.890402
siesta: Etot    =      -345.890402
siesta: FreeEng =      -345.890402

siesta: Final energy (eV):
siesta:  Band Struct. =    -103.830817
siesta:       Kinetic =     257.214647
siesta:       Hartree =     172.337728
siesta:         Edftu =       0.000000
siesta:       Eso     =       0.000000
siesta:    Ext. field =       0.000000
siesta:         Exch. =    -105.637689
siesta:         Corr. =      -9.690764
siesta:     Bulk bias =       0.000000
siesta:   Exch.-corr. =    -115.328453
siesta:  Ion-electron =    -575.247729
siesta:       Ion-ion =     -84.866595
siesta:       Ekinion =       0.000000
siesta: D3 dispersion =       0.000000
siesta:         Total =    -345.890402
siesta:         Fermi =      -7.844584

siesta: Atomic forces (eV/Ang):
siesta:      1    0.000000    0.000000  -77.637249
siesta:      2   -0.000000    0.000000   77.635971
siesta: ----------------------------------------
siesta:    Tot    0.000000    0.000000   -0.001278

siesta: Stress tensor (static) (eV/Ang**3):
siesta:     0.001404   -0.000000    0.000000
siesta:     0.000000    0.001404    0.000000
siesta:     0.000000   -0.000000   -1.305648

siesta: Cell volume =         46.655611 Ang**3

siesta: Pressure (static):
siesta:                Solid            Molecule  Units
siesta:           0.00472991          0.02082953  Ry/Bohr**3
siesta:           0.43428030          1.91247919  eV/Ang**3
siesta:         695.79375304       3064.12946448  kBar
(Free)E+ p_basis*V_orbitals  =        -344.744398
(Free)Eharris+ p_basis*V_orbitals  =        -344.744398

cite: Please see "aiida.bib" for an exhaustive BiBTeX file.
cite: Please clearly indicate Siesta version in published work: NO_VERSION_LABEL_AVAILABLE
cite: This calculation has made use of the following articles
cite: which are encouraged to be cited in a published work.
        Primary SIESTA paper
          DOI: www.doi.org/10.1088/0953-8984/14/11/302


             Section          Calls    Walltime       %
 global_section                   1      10.616  100.00
  siesta                          1      10.616  100.00
   Setup                          1       0.136    1.28
    bands                         1       0.000    0.00
    KSV_init                      1       0.000    0.00
   IterGeom                       1      10.472   98.65
    geom_init                     1       0.610    5.75
     state_init                   1       0.035    0.33
      hsparse                     1       0.000    0.00
      overlap                     1       0.020    0.19
     Setup_H0                     1       0.547    5.16
      naefs                       1       0.000    0.00
      MolMec                      1       0.000    0.00
      kinefsm                     1       0.016    0.15
      nlefsm                      1       0.193    1.82
      DHSCF_Init                  1       0.338    3.18
       DHSCF1                     1       0.044    0.42
        INITMESH                  1       0.000    0.00
       DHSCF2                     1       0.294    2.77
        REMESH                    1       0.129    1.21
         INITMESH                 2       0.067    0.64
          SPLOAD                  2       0.067    0.63
        REORD                     2       0.000    0.00
        PHION                     1       0.113    1.06
        COMM_BSC                  1       0.000    0.00
        POISON                    1       0.001    0.01
         fft                      2       0.001    0.01
     setup_H                      1       0.028    0.27
      DHSCF                       1       0.028    0.27
       DHSCF3                     1       0.028    0.27
        rhoofd                    1       0.012    0.11
        COMM_BSC                  2       0.002    0.02
        POISON                    1       0.001    0.01
         fft                      2       0.001    0.01
        XC                        1       0.005    0.05
         COMM_BSC                 2       0.000    0.00
         GXC-CellXC               1       0.005    0.05
          gridxc@cellXC           1       0.005    0.05
        vmat                      1       0.008    0.08
    IterSCF                      18       9.768   92.02
     compute_dm                  18       9.282   87.44
      diagon                     18       9.282   87.44
       c-eigval                2376       4.529   42.66
        c-buildHS              2376       0.035    0.33
        cdiag                  2376       4.492   42.32
         cdiag1                2376       0.428    4.03
         cdiag2                2376       0.936    8.81
         cdiag3                2376       3.015   28.40
       c-eigvec                2376       4.689   44.17
        cdiag                  2376       4.654   43.84
         cdiag1                2376       0.428    4.03
         cdiag2                2376       0.945    8.90
         cdiag3                2376       3.029   28.54
         cdiag4                2376       0.142    1.33
       c-buildD                2376       0.060    0.56
     setup_H                     18       0.478    4.50
      DHSCF                      18       0.477    4.50
       DHSCF3                    18       0.477    4.50
        rhoofd                   18       0.171    1.61
        COMM_BSC                 36       0.038    0.36
        POISON                   18       0.012    0.12
         fft                     36       0.011    0.11
        XC                       18       0.115    1.08
         COMM_BSC                36       0.003    0.02
         GXC-CellXC              18       0.112    1.06
          gridxc@cellXC          18       0.112    1.06
        vmat                     18       0.139    1.31
     MIXER                       17       0.001    0.01
    PostSCF                       1       0.093    0.87
     naefs                        1       0.000    0.00
     kinefsm                      1       0.000    0.00
     nlefsm                       1       0.002    0.02
     DHSCF                        1       0.085    0.80
      DHSCF3                      1       0.027    0.25
       rhoofd                     1       0.009    0.08
       COMM_BSC                   2       0.003    0.03
       POISON                     1       0.001    0.01
        fft                       2       0.001    0.01
       XC                         1       0.007    0.07
        COMM_BSC                  2       0.000    0.00
        GXC-CellXC                1       0.007    0.07
         gridxc@cellXC            1       0.007    0.07
       vmat                       1       0.007    0.06
      DHSCF4                      1       0.059    0.55
       REORD                     10       0.000    0.00
       COMM_BSC                   2       0.000    0.00
       dfscf                      1       0.034    0.32
     overfsm                      1       0.000    0.00
     MolMec                       1       0.000    0.00
     writeHSX                     1       0.000    0.00
    state_analysis                1       0.000    0.00
    siesta_move                   1       0.000    0.00
   Analysis                       1       0.006    0.06
    optical                       1       0.000    0.00

>> End of run:  22-APR-2024   2:15:05
Job completed
